<LesHouchesEvents version="1.0">
<init>
 11 -11 5 5 0 0 -1 -1 3 1
 50 5 1 80
</init>
<event>
 4 80 1 -1 -1 -1
 11 -1 0 0 0 0 0 0 4.99408 4.99408 0 0. 9.
 -11 -1 0 0 0 0 0 0 -0.660166 0.660166 0 0. 9.
 15 1 1 2 0 0 0.115998 0.18596 2.63706 3.18745 1.7768 0. -1
 -15 1 1 2 0 0 -0.115998 -0.18596 1.69686 2.4668 1.7768 0. 1
</event>
<event>
 4 80 1 -1 -1 -1
 11 -1 0 0 0 0 0 0 5 5 0 0. 9.
 -11 -1 0 0 0 0 0 0 -5 5 0 0. 9.
 15 1 1 2 0 0 1.59274 -2.49879 -3.61407 5 1.7768 0. -1
 -15 1 1 2 0 0 -1.59274 2.49879 3.61407 5 1.7768 0. 1
</event>
<event>
 4 80 1 -1 -1 -1
 11 -1 0 0 0 0 0 0 5 5 0 0. 9.
 -11 -1 0 0 0 0 0 0 -5 5 0 0. 9.
 15 1 1 2 0 0 3.69411 -2.78998 -0.641757 5 1.7768 0. -1
 -15 1 1 2 0 0 -3.69411 2.78998 0.641757 5 1.7768 0. 1
</event>
<event>
 4 80 1 -1 -1 -1
 11 -1 0 0 0 0 0 0 5 5 0 0. 9.
 -11 -1 0 0 0 0 0 0 -5 5 0 0. 9.
 15 1 1 2 0 0 1.85806 -1.5584 3.99516 5 1.7768 0. -1
 -15 1 1 2 0 0 -1.85806 1.5584 -3.99516 5 1.7768 0. 1
</event>
<event>
 4 80 1 -1 -1 -1
 11 -1 0 0 0 0 0 0 4.99999 4.99999 0 0. 9.
 -11 -1 0 0 0 0 0 0 -5 5 0 0. 9.
 15 1 1 2 0 0 1.67337 -0.0917383 -4.36276 5 1.7768 0. 1
 -15 1 1 2 0 0 -1.67337 0.0917383 4.36276 4.99999 1.7768 0. -1
</event>
<event>
 4 80 1 -1 -1 -1
 11 -1 0 0 0 0 0 0 5 5 0 0. 9.
 -11 -1 0 0 0 0 0 0 -4.99972 4.99972 0 0. 9.
 15 1 1 2 0 0 -2.05423 -1.45003 3.93949 4.99997 1.7768 0. -1
 -15 1 1 2 0 0 2.05423 1.45003 -3.93921 4.99975 1.7768 0. 1
</event>
<event>
 4 80 1 -1 -1 -1
 11 -1 0 0 0 0 0 0 5 5 0 0. 9.
 -11 -1 0 0 0 0 0 0 -5 5 0 0. 9.
 15 1 1 2 0 0 4.56413 0.940828 0.354766 5 1.7768 0. 1
 -15 1 1 2 0 0 -4.56413 -0.940828 -0.354766 5 1.7768 0. -1
</event>
<event>
 4 80 1 -1 -1 -1
 11 -1 0 0 0 0 0 0 4.93093 4.93093 0 0. 9.
 -11 -1 0 0 0 0 0 0 -4.44264 4.44264 0 0. 9.
 15 1 1 2 0 0 -0.627567 -0.257642 4.52645 4.90986 1.7768 0. -1
 -15 1 1 2 0 0 0.627567 0.257642 -4.03816 4.46371 1.7768 0. 1
</event>
<event>
 4 80 1 -1 -1 -1
 11 -1 0 0 0 0 0 0 5 5 0 0. 9.
 -11 -1 0 0 0 0 0 0 -4.89223 4.89223 0 0. 9.
 15 1 1 2 0 0 0.715998 4.55952 0.093771 4.94655 1.7768 0. 1
 -15 1 1 2 0 0 -0.715998 -4.55952 0.0139954 4.94568 1.7768 0. -1
</event>
<event>
 4 80 1 -1 -1 -1
 11 -1 0 0 0 0 0 0 4.84369 4.84369 0 0. 9.
 -11 -1 0 0 0 0 0 0 -5 5 0 0. 9.
 15 1 1 2 0 0 -1.85751 -1.98289 3.62076 4.86311 1.7768 0. 1
 -15 1 1 2 0 0 1.85751 1.98289 -3.77707 4.98058 1.7768 0. -1
</event>
<event>
 4 80 1 -1 -1 -1
 11 -1 0 0 0 0 0 0 5 5 0 0. 9.
 -11 -1 0 0 0 0 0 0 -5 5 0 0. 9.
 15 1 1 2 0 0 -2.3206 -2.59853 3.11524 5 1.7768 0. -1
 -15 1 1 2 0 0 2.3206 2.59853 -3.11524 5 1.7768 0. 1
</event>
<event>
 4 80 1 -1 -1 -1
 11 -1 0 0 0 0 0 0 4.98368 4.98368 0 0. 9.
 -11 -1 0 0 0 0 0 0 -4.95583 4.95583 0 0. 9.
 15 1 1 2 0 0 -3.58958 -0.239978 -2.9183 4.96154 1.7768 0. -1
 -15 1 1 2 0 0 3.58958 0.239978 2.94615 4.97797 1.7768 0. 1
</event>
<event>
 4 80 1 -1 -1 -1
 11 -1 0 0 0 0 0 0 5 5 0 0. 9.
 -11 -1 0 0 0 0 0 0 -5 5 0 0. 9.
 15 1 1 2 0 0 3.64642 -2.88159 0.492287 5 1.7768 0. 1
 -15 1 1 2 0 0 -3.64642 2.88159 -0.492287 5 1.7768 0. -1
</event>
<event>
 4 80 1 -1 -1 -1
 11 -1 0 0 0 0 0 0 4.99997 4.99997 0 0. 9.
 -11 -1 0 0 0 0 0 0 -5 5 0 0. 9.
 15 1 1 2 0 0 -1.02798 -0.482352 -4.53353 5 1.7768 0. 1
 -15 1 1 2 0 0 1.02798 0.482352 4.5335 4.99998 1.7768 0. -1
</event>
<event>
 4 80 1 -1 -1 -1
 11 -1 0 0 0 0 0 0 4.99999 4.99999 0 0. 9.
 -11 -1 0 0 0 0 0 0 -5 5 0 0. 9.
 15 1 1 2 0 0 -2.32578 -0.926066 3.94656 4.99999 1.7768 0. 1
 -15 1 1 2 0 0 2.32578 0.926066 -3.94657 5 1.7768 0. -1
</event>
<event>
 4 80 1 -1 -1 -1
 11 -1 0 0 0 0 0 0 5 5 0 0. 9.
 -11 -1 0 0 0 0 0 0 -1.20585 1.20585 0 0. 9.
 15 1 1 2 0 0 0.505751 -1.58782 1.50842 2.86531 1.7768 0. -1
 -15 1 1 2 0 0 -0.505751 1.58782 2.28572 3.34054 1.7768 0. 1
</event>
<event>
 4 80 1 -1 -1 -1
 11 -1 0 0 0 0 0 0 4.61617 4.61617 0 0. 9.
 -11 -1 0 0 0 0 0 0 -5 5 0 0. 9.
 15 1 1 2 0 0 -3.63112 2.18693 -1.59141 4.86395 1.7768 0. 1
 -15 1 1 2 0 0 3.63112 -2.18693 1.20758 4.75223 1.7768 0. -1
</event>
<event>
 4 80 1 -1 -1 -1
 11 -1 0 0 0 0 0 0 5 5 0 0. 9.
 -11 -1 0 0 0 0 0 0 -4.99948 4.99948 0 0. 9.
 15 1 1 2 0 0 -1.4871 4.06166 -1.76925 4.99965 1.7768 0. 1
 -15 1 1 2 0 0 1.4871 -4.06166 1.76977 4.99983 1.7768 0. -1
</event>
<event>
 4 80 1 -1 -1 -1
 11 -1 0 0 0 0 0 0 5 5 0 0. 9.
 -11 -1 0 0 0 0 0 0 -4.98819 4.98819 0 0. 9.
 15 1 1 2 0 0 0.49435 0.796721 -4.56619 4.98869 1.7768 0. 1
 -15 1 1 2 0 0 -0.49435 -0.796721 4.57801 4.9995 1.7768 0. -1
</event>
<event>
 4 80 1 -1 -1 -1
 11 -1 0 0 0 0 0 0 4.34026 4.34026 0 0. 9.
 -11 -1 0 0 0 0 0 0 -5 5 0 0. 9.
 15 1 1 2 0 0 1.32324 2.94775 -3.18365 4.8717 1.7768 0. -1
 -15 1 1 2 0 0 -1.32324 -2.94775 2.52391 4.46856 1.7768 0. 1
</event>
<event>
 4 80 1 -1 -1 -1
 11 -1 0 0 0 0 0 0 4.65931 4.65931 0 0. 9.
 -11 -1 0 0 0 0 0 0 -5 5 0 0. 9.
 15 1 1 2 0 0 -1.17784 3.44777 2.45129 4.73719 1.7768 0. -1
 -15 1 1 2 0 0 1.17784 -3.44777 -2.79198 4.92212 1.7768 0. 1
</event>
<event>
 4 80 1 -1 -1 -1
 11 -1 0 0 0 0 0 0 4.65693 4.65693 0 0. 9.
 -11 -1 0 0 0 0 0 0 -4.98159 4.98159 0 0. 9.
 15 1 1 2 0 0 -3.65688 2.47083 0.588686 4.79396 1.7768 0. 1
 -15 1 1 2 0 0 3.65688 -2.47083 -0.913343 4.84456 1.7768 0. -1
</event>
<event>
 4 80 1 -1 -1 -1
 11 -1 0 0 0 0 0 0 5 5 0 0. 9.
 -11 -1 0 0 0 0 0 0 -5 5 0 0. 9.
 15 1 1 2 0 0 3.33387 2.90895 1.50518 5 1.7768 0. -1
 -15 1 1 2 0 0 -3.33387 -2.90895 -1.50518 5 1.7768 0. 1
</event>
<event>
 4 80 1 -1 -1 -1
 11 -1 0 0 0 0 0 0 5 5 0 0. 9.
 -11 -1 0 0 0 0 0 0 -5 5 0 0. 9.
 15 1 1 2 0 0 3.39295 2.30517 2.23973 5 1.7768 0. -1
 -15 1 1 2 0 0 -3.39295 -2.30517 -2.23973 5 1.7768 0. 1
</event>
<event>
 4 80 1 -1 -1 -1
 11 -1 0 0 0 0 0 0 5 5 0 0. 9.
 -11 -1 0 0 0 0 0 0 -5 5 0 0. 9.
 15 1 1 2 0 0 3.17458 0.910409 -3.30688 5 1.7768 0. -1
 -15 1 1 2 0 0 -3.17458 -0.910409 3.30688 5 1.7768 0. 1
</event>
<event>
 4 80 1 -1 -1 -1
 11 -1 0 0 0 0 0 0 5 5 0 0. 9.
 -11 -1 0 0 0 0 0 0 -5 5 0 0. 9.
 15 1 1 2 0 0 4.40863 -1.52094 -0.304931 5 1.7768 0. 1
 -15 1 1 2 0 0 -4.40863 1.52094 0.304929 5 1.7768 0. -1
</event>
<event>
 4 80 1 -1 -1 -1
 11 -1 0 0 0 0 0 0 4.94421 4.94421 0 0. 9.
 -11 -1 0 0 0 0 0 0 -4.39881 4.39881 0 0. 9.
 15 1 1 2 0 0 -2.07018 -0.916556 3.94847 4.88608 1.7768 0. -1
 -15 1 1 2 0 0 2.07018 0.916556 -3.40306 4.45694 1.7768 0. 1
</event>
<event>
 4 80 1 -1 -1 -1
 11 -1 0 0 0 0 0 0 5 5 0 0. 9.
 -11 -1 0 0 0 0 0 0 -5 5 0 0. 9.
 15 1 1 2 0 0 -1.12311 -2.80141 -3.56834 5 1.7768 0. -1
 -15 1 1 2 0 0 1.12311 2.80141 3.56834 5 1.7768 0. 1
</event>
<event>
 4 80 1 -1 -1 -1
 11 -1 0 0 0 0 0 0 4.46607 4.46607 0 0. 9.
 -11 -1 0 0 0 0 0 0 -4.22637 4.22637 0 0. 9.
 15 1 1 2 0 0 -0.684718 1.10189 -3.62784 4.24288 1.7768 0. 1
 -15 1 1 2 0 0 0.684718 -1.10189 3.86755 4.44957 1.7768 0. -1
</event>
<event>
 4 80 1 -1 -1 -1
 11 -1 0 0 0 0 0 0 4.99165 4.99165 0 0. 9.
 -11 -1 0 0 0 0 0 0 -5 5 0 0. 9.
 15 1 1 2 0 0 -4.39519 -1.56869 0.144264 4.9957 1.7768 0. -1
 -15 1 1 2 0 0 4.39519 1.56869 -0.152614 4.99595 1.7768 0. 1
</event>
<event>
 4 80 1 -1 -1 -1
 11 -1 0 0 0 0 0 0 4.5161 4.5161 0 0. 9.
 -11 -1 0 0 0 0 0 0 -5 5 0 0. 9.
 15 1 1 2 0 0 2.6787 -2.08997 2.56871 4.61513 1.7768 0. -1
 -15 1 1 2 0 0 -2.6787 2.08997 -3.0526 4.90097 1.7768 0. 1
</event>
<event>
 4 80 1 -1 -1 -1
 11 -1 0 0 0 0 0 0 3.47671 3.47671 0 0. 9.
 -11 -1 0 0 0 0 0 0 -4.99999 4.99999 0 0. 9.
 15 1 1 2 0 0 -0.919965 1.05033 2.80009 3.5983 1.7768 0. 1
 -15 1 1 2 0 0 0.919965 -1.05033 -4.32337 4.8784 1.7768 0. -1
</event>
<event>
 4 80 1 -1 -1 -1
 11 -1 0 0 0 0 0 0 1.96225 1.96225 0 0. 9.
 -11 -1 0 0 0 0 0 0 -5 5 0 0. 9.
 15 1 1 2 0 0 0.589246 -0.956859 1.06149 2.35526 1.7768 0. 1
 -15 1 1 2 0 0 -0.589246 0.956859 -4.09924 4.60698 1.7768 0. -1
</event>
<event>
 4 80 1 -1 -1 -1
 11 -1 0 0 0 0 0 0 5 5 0 0. 9.
 -11 -1 0 0 0 0 0 0 -3.16213 3.16213 0 0. 9.
 15 1 1 2 0 0 0.208663 -1.69455 -2.28387 3.35988 1.7768 0. 1
 -15 1 1 2 0 0 -0.208663 1.69455 4.12174 4.80224 1.7768 0. -1
</event>
<event>
 4 80 1 -1 -1 -1
 11 -1 0 0 0 0 0 0 5 5 0 0. 9.
 -11 -1 0 0 0 0 0 0 -4.99935 4.99935 0 0. 9.
 15 1 1 2 0 0 2.7353 0.464154 3.76087 4.99992 1.7768 0. 1
 -15 1 1 2 0 0 -2.7353 -0.464154 -3.76022 4.99943 1.7768 0. -1
</event>
<event>
 4 80 1 -1 -1 -1
 11 -1 0 0 0 0 0 0 5 5 0 0. 9.
 -11 -1 0 0 0 0 0 0 -5 5 0 0. 9.
 15 1 1 2 0 0 -3.56083 -0.243175 -3.01722 5 1.7768 0. -1
 -15 1 1 2 0 0 3.56083 0.243175 3.01722 5 1.7768 0. 1
</event>
<event>
 4 80 1 -1 -1 -1
 11 -1 0 0 0 0 0 0 5 5 0 0. 9.
 -11 -1 0 0 0 0 0 0 -4.5503 4.5503 0 0. 9.
 15 1 1 2 0 0 0.837074 -0.540928 -4.09276 4.57184 1.7768 0. 1
 -15 1 1 2 0 0 -0.837074 0.540928 4.54247 4.97846 1.7768 0. -1
</event>
<event>
 4 80 1 -1 -1 -1
 11 -1 0 0 0 0 0 0 5 5 0 0. 9.
 -11 -1 0 0 0 0 0 0 -5 5 0 0. 9.
 15 1 1 2 0 0 2.25443 -0.816183 4.01169 5 1.7768 0. -1
 -15 1 1 2 0 0 -2.25443 0.816183 -4.01169 5 1.7768 0. 1
</event>
<event>
 4 80 1 -1 -1 -1
 11 -1 0 0 0 0 0 0 5 5 0 0. 9.
 -11 -1 0 0 0 0 0 0 -4.53996 4.53996 0 0. 9.
 15 1 1 2 0 0 -0.859435 4.32739 0.508081 4.78339 1.7768 0. -1
 -15 1 1 2 0 0 0.859435 -4.32739 -0.0480413 4.75657 1.7768 0. 1
</event>
<event>
 4 80 1 -1 -1 -1
 11 -1 0 0 0 0 0 0 4.89945 4.89945 0 0. 9.
 -11 -1 0 0 0 0 0 0 -5 5 0 0. 9.
 15 1 1 2 0 0 3.69389 -0.463728 2.68476 4.92195 1.7768 0. 1
 -15 1 1 2 0 0 -3.69389 0.463728 -2.78531 4.97751 1.7768 0. -1
</event>
<event>
 4 80 1 -1 -1 -1
 11 -1 0 0 0 0 0 0 5 5 0 0. 9.
 -11 -1 0 0 0 0 0 0 -4.99993 4.99993 0 0. 9.
 15 1 1 2 0 0 1.4425 -0.199233 -4.44085 4.99994 1.7768 0. -1
 -15 1 1 2 0 0 -1.4425 0.199233 4.44092 5 1.7768 0. 1
</event>
<event>
 4 80 1 -1 -1 -1
 11 -1 0 0 0 0 0 0 2.76579 2.76579 0 0. 9.
 -11 -1 0 0 0 0 0 0 -4.98401 4.98401 0 0. 9.
 15 1 1 2 0 0 -0.906648 -2.87733 0.18013 3.50588 1.7768 0. -1
 -15 1 1 2 0 0 0.906648 2.87733 -2.39835 4.24392 1.7768 0. 1
</event>
<event>
 4 80 1 -1 -1 -1
 11 -1 0 0 0 0 0 0 4.71173 4.71173 0 0. 9.
 -11 -1 0 0 0 0 0 0 -4.99995 4.99995 0 0. 9.
 15 1 1 2 0 0 -2.65139 3.65602 -0.210156 4.8578 1.7768 0. -1
 -15 1 1 2 0 0 2.65139 -3.65602 -0.0780617 4.85388 1.7768 0. 1
</event>
<event>
 4 80 1 -1 -1 -1
 11 -1 0 0 0 0 0 0 0.904168 0.904168 0 0. 9.
 -11 -1 0 0 0 0 0 0 -5 5 0 0. 9.
 15 1 1 2 0 0 0.675589 -0.950383 -2.12958 3.00874 1.7768 0. -1
 -15 1 1 2 0 0 -0.675589 0.950383 -1.96625 2.89543 1.7768 0. 1
</event>
<event>
 4 80 1 -1 -1 -1
 11 -1 0 0 0 0 0 0 4.11584 4.11584 0 0. 9.
 -11 -1 0 0 0 0 0 0 -2.3141 2.3141 0 0. 9.
 15 1 1 2 0 0 0.118796 -0.603793 -1.64831 2.50066 1.7768 0. -1
 -15 1 1 2 0 0 -0.118796 0.603793 3.45005 3.92928 1.7768 0. 1
</event>
<event>
 4 80 1 -1 -1 -1
 11 -1 0 0 0 0 0 0 5 5 0 0. 9.
 -11 -1 0 0 0 0 0 0 -4.9958 4.9958 0 0. 9.
 15 1 1 2 0 0 1.17756 1.95502 -4.07375 4.99619 1.7768 0. -1
 -15 1 1 2 0 0 -1.17756 -1.95502 4.07795 4.99961 1.7768 0. 1
</event>
<event>
 4 80 1 -1 -1 -1
 11 -1 0 0 0 0 0 0 4.99996 4.99996 0 0. 9.
 -11 -1 0 0 0 0 0 0 -5 5 0 0. 9.
 15 1 1 2 0 0 3.80624 -1.28809 2.38649 4.99997 1.7768 0. -1
 -15 1 1 2 0 0 -3.80624 1.28809 -2.38653 4.99999 1.7768 0. 1
</event>
<event>
 4 80 1 -1 -1 -1
 11 -1 0 0 0 0 0 0 5 5 0 0. 9.
 -11 -1 0 0 0 0 0 0 -4.99999 4.99999 0 0. 9.
 15 1 1 2 0 0 2.32855 -4.00431 -0.620919 4.99999 1.7768 0. 1
 -15 1 1 2 0 0 -2.32855 4.00431 0.620932 4.99999 1.7768 0. -1
</event>
<event>
 4 80 1 -1 -1 -1
 11 -1 0 0 0 0 0 0 5 5 0 0. 9.
 -11 -1 0 0 0 0 0 0 -5 5 0 0. 9.
 15 1 1 2 0 0 -3.79798 -0.943192 -2.555 5 1.7768 0. -1
 -15 1 1 2 0 0 3.79798 0.943192 2.555 5 1.7768 0. 1
</event>
<event>
 4 80 1 -1 -1 -1
 11 -1 0 0 0 0 0 0 5 5 0 0. 9.
 -11 -1 0 0 0 0 0 0 -4.99647 4.99647 0 0. 9.
 15 1 1 2 0 0 -0.68089 2.97128 -3.53836 4.99698 1.7768 0. -1
 -15 1 1 2 0 0 0.68089 -2.97128 3.54189 4.99948 1.7768 0. 1
</event>
<event>
 4 80 1 -1 -1 -1
 11 -1 0 0 0 0 0 0 5 5 0 0. 9.
 -11 -1 0 0 0 0 0 0 -5 5 0 0. 9.
 15 1 1 2 0 0 0.550469 -0.714007 -4.58579 5 1.7768 0. -1
 -15 1 1 2 0 0 -0.550469 0.714007 4.58578 5 1.7768 0. 1
</event>
<event>
 4 80 1 -1 -1 -1
 11 -1 0 0 0 0 0 0 5 5 0 0. 9.
 -11 -1 0 0 0 0 0 0 -1.56345 1.56345 0 0. 9.
 15 1 1 2 0 0 -0.468905 -1.14923 -0.354621 2.19638 1.7768 0. -1
 -15 1 1 2 0 0 0.468905 1.14923 3.79117 4.36707 1.7768 0. 1
</event>
<event>
 4 80 1 -1 -1 -1
 11 -1 0 0 0 0 0 0 5 5 0 0. 9.
 -11 -1 0 0 0 0 0 0 -4.97043 4.97043 0 0. 9.
 15 1 1 2 0 0 -0.630577 -4.60496 -0.287121 4.98432 1.7768 0. 1
 -15 1 1 2 0 0 0.630577 4.60496 0.31669 4.98611 1.7768 0. -1
</event>
<event>
 4 80 1 -1 -1 -1
 11 -1 0 0 0 0 0 0 5 5 0 0. 9.
 -11 -1 0 0 0 0 0 0 -5 5 0 0. 9.
 15 1 1 2 0 0 -1.62034 -1.41758 -4.14816 5 1.7768 0. 1
 -15 1 1 2 0 0 1.62034 1.41758 4.14816 5 1.7768 0. -1
</event>
<event>
 4 80 1 -1 -1 -1
 11 -1 0 0 0 0 0 0 4.99966 4.99966 0 0. 9.
 -11 -1 0 0 0 0 0 0 -5 5 0 0. 9.
 15 1 1 2 0 0 0.923841 3.8453 2.48996 4.99974 1.7768 0. 1
 -15 1 1 2 0 0 -0.923841 -3.8453 -2.4903 4.99991 1.7768 0. -1
</event>
<event>
 4 80 1 -1 -1 -1
 11 -1 0 0 0 0 0 0 4.75169 4.75169 0 0. 9.
 -11 -1 0 0 0 0 0 0 -5 5 0 0. 9.
 15 1 1 2 0 0 2.96909 1.64815 2.88827 4.79914 1.7768 0. -1
 -15 1 1 2 0 0 -2.96909 -1.64815 -3.13658 4.95255 1.7768 0. 1
</event>
<event>
 4 80 1 -1 -1 -1
 11 -1 0 0 0 0 0 0 4.99999 4.99999 0 0. 9.
 -11 -1 0 0 0 0 0 0 -4.7264 4.7264 0 0. 9.
 15 1 1 2 0 0 0.742747 -1.14707 -4.17847 4.74181 1.7768 0. -1
 -15 1 1 2 0 0 -0.742747 1.14707 4.45206 4.98458 1.7768 0. 1
</event>
<event>
 4 80 1 -1 -1 -1
 11 -1 0 0 0 0 0 0 5 5 0 0. 9.
 -11 -1 0 0 0 0 0 0 -5 5 0 0. 9.
 15 1 1 2 0 0 3.82544 -2.64235 0.475654 5 1.7768 0. 1
 -15 1 1 2 0 0 -3.82544 2.64235 -0.475654 5 1.7768 0. -1
</event>
<event>
 4 80 1 -1 -1 -1
 11 -1 0 0 0 0 0 0 5 5 0 0. 9.
 -11 -1 0 0 0 0 0 0 -4.99663 4.99663 0 0. 9.
 15 1 1 2 0 0 -2.30082 -4.04227 0.439512 4.99846 1.7768 0. -1
 -15 1 1 2 0 0 2.30082 4.04227 -0.436143 4.99817 1.7768 0. 1
</event>
<event>
 4 80 1 -1 -1 -1
 11 -1 0 0 0 0 0 0 3.22266 3.22266 0 0. 9.
 -11 -1 0 0 0 0 0 0 -4.98068 4.98068 0 0. 9.
 15 1 1 2 0 0 -2.26771 1.86625 1.23602 3.6484 1.7768 0. -1
 -15 1 1 2 0 0 2.26771 -1.86625 -2.99405 4.55493 1.7768 0. 1
</event>
<event>
 4 80 1 -1 -1 -1
 11 -1 0 0 0 0 0 0 4.99845 4.99845 0 0. 9.
 -11 -1 0 0 0 0 0 0 -5 5 0 0. 9.
 15 1 1 2 0 0 2.84527 -1.96403 -3.14427 4.99971 1.7768 0. 1
 -15 1 1 2 0 0 -2.84527 1.96403 3.14272 4.99874 1.7768 0. -1
</event>
<event>
 4 80 1 -1 -1 -1
 11 -1 0 0 0 0 0 0 4.9989 4.9989 0 0. 9.
 -11 -1 0 0 0 0 0 0 -5 5 0 0. 9.
 15 1 1 2 0 0 -3.31328 0.262604 3.28426 4.99909 1.7768 0. 1
 -15 1 1 2 0 0 3.31328 -0.262604 -3.28536 4.99981 1.7768 0. -1
</event>
<event>
 4 80 1 -1 -1 -1
 11 -1 0 0 0 0 0 0 3.53877 3.53877 0 0. 9.
 -11 -1 0 0 0 0 0 0 -5 5 0 0. 9.
 15 1 1 2 0 0 -0.315339 0.503601 3.09181 3.61526 1.7768 0. 1
 -15 1 1 2 0 0 0.315339 -0.503601 -4.55304 4.92351 1.7768 0. -1
</event>
<event>
 4 80 1 -1 -1 -1
 11 -1 0 0 0 0 0 0 5 5 0 0. 9.
 -11 -1 0 0 0 0 0 0 -4.9965 4.9965 0 0. 9.
 15 1 1 2 0 0 -0.705898 4.15247 -2.01902 4.99755 1.7768 0. 1
 -15 1 1 2 0 0 0.705898 -4.15247 2.02252 4.99896 1.7768 0. -1
</event>
<event>
 4 80 1 -1 -1 -1
 11 -1 0 0 0 0 0 0 5 5 0 0. 9.
 -11 -1 0 0 0 0 0 0 -5 5 0 0. 9.
 15 1 1 2 0 0 1.26158 -1.54925 4.22499 5 1.7768 0. -1
 -15 1 1 2 0 0 -1.26158 1.54925 -4.22499 5 1.7768 0. 1
</event>
<event>
 4 80 1 -1 -1 -1
 11 -1 0 0 0 0 0 0 5 5 0 0. 9.
 -11 -1 0 0 0 0 0 0 -5 5 0 0. 9.
 15 1 1 2 0 0 2.96933 0.431675 3.58315 5 1.7768 0. 1
 -15 1 1 2 0 0 -2.96933 -0.431675 -3.58315 5 1.7768 0. -1
</event>
<event>
 4 80 1 -1 -1 -1
 11 -1 0 0 0 0 0 0 4.83953 4.83953 0 0. 9.
 -11 -1 0 0 0 0 0 0 -4.89352 4.89352 0 0. 9.
 15 1 1 2 0 0 3.68824 1.78846 1.90252 4.85582 1.7768 0. 1
 -15 1 1 2 0 0 -3.68824 -1.78846 -1.95651 4.87723 1.7768 0. -1
</event>
<event>
 4 80 1 -1 -1 -1
 11 -1 0 0 0 0 0 0 5 5 0 0. 9.
 -11 -1 0 0 0 0 0 0 -4.99448 4.99448 0 0. 9.
 15 1 1 2 0 0 -1.3306 1.98522 -4.01011 4.99503 1.7768 0. -1
 -15 1 1 2 0 0 1.3306 -1.98522 4.01562 4.99946 1.7768 0. 1
</event>
<event>
 4 80 1 -1 -1 -1
 11 -1 0 0 0 0 0 0 4.99941 4.99941 0 0. 9.
 -11 -1 0 0 0 0 0 0 -0.839787 0.839787 0 0. 9.
 15 1 1 2 0 0 0.0562438 -0.981204 2.46947 3.19718 1.7768 0. 1
 -15 1 1 2 0 0 -0.0562438 0.981204 1.69015 2.64202 1.7768 0. -1
</event>
<event>
 4 80 1 -1 -1 -1
 11 -1 0 0 0 0 0 0 4.44229 4.44229 0 0. 9.
 -11 -1 0 0 0 0 0 0 -5 5 0 0. 9.
 15 1 1 2 0 0 -2.82693 -3.31034 -0.601572 4.7402 1.7768 0. 1
 -15 1 1 2 0 0 2.82693 3.31034 0.0438583 4.70208 1.7768 0. -1
</event>
<event>
 4 80 1 -1 -1 -1
 11 -1 0 0 0 0 0 0 5 5 0 0. 9.
 -11 -1 0 0 0 0 0 0 -5 5 0 0. 9.
 15 1 1 2 0 0 -2.71035 2.01813 3.22853 5 1.7768 0. 1
 -15 1 1 2 0 0 2.71035 -2.01813 -3.22853 5 1.7768 0. -1
</event>
<event>
 4 80 1 -1 -1 -1
 11 -1 0 0 0 0 0 0 4.99985 4.99985 0 0. 9.
 -11 -1 0 0 0 0 0 0 -5 5 0 0. 9.
 15 1 1 2 0 0 0.475233 0.725777 -4.59234 4.99999 1.7768 0. 1
 -15 1 1 2 0 0 -0.475233 -0.725777 4.59219 4.99985 1.7768 0. -1
</event>
<event>
 4 80 1 -1 -1 -1
 11 -1 0 0 0 0 0 0 5 5 0 0. 9.
 -11 -1 0 0 0 0 0 0 -4.99913 4.99913 0 0. 9.
 15 1 1 2 0 0 2.76612 -2.03524 -3.16884 4.99929 1.7768 0. -1
 -15 1 1 2 0 0 -2.76612 2.03524 3.16971 4.99984 1.7768 0. 1
</event>
<event>
 4 80 1 -1 -1 -1
 11 -1 0 0 0 0 0 0 5 5 0 0. 9.
 -11 -1 0 0 0 0 0 0 -5 5 0 0. 9.
 15 1 1 2 0 0 3.95975 2.47453 -0.198378 5 1.7768 0. 1
 -15 1 1 2 0 0 -3.95975 -2.47453 0.198375 5 1.7768 0. -1
</event>
<event>
 4 80 1 -1 -1 -1
 11 -1 0 0 0 0 0 0 5 5 0 0. 9.
 -11 -1 0 0 0 0 0 0 -5 5 0 0. 9.
 15 1 1 2 0 0 -4.34015 -0.313103 1.70508 5 1.7768 0. -1
 -15 1 1 2 0 0 4.34015 0.313103 -1.70508 5 1.7768 0. 1
</event>
<event>
 4 80 1 -1 -1 -1
 11 -1 0 0 0 0 0 0 5 5 0 0. 9.
 -11 -1 0 0 0 0 0 0 -4.99966 4.99966 0 0. 9.
 15 1 1 2 0 0 -2.91935 -1.3919 -3.37334 4.99971 1.7768 0. -1
 -15 1 1 2 0 0 2.91935 1.3919 3.37368 4.99994 1.7768 0. 1
</event>
<event>
 4 80 1 -1 -1 -1
 11 -1 0 0 0 0 0 0 5 5 0 0. 9.
 -11 -1 0 0 0 0 0 0 -5 5 0 0. 9.
 15 1 1 2 0 0 3.42295 -2.35736 2.13741 5 1.7768 0. -1
 -15 1 1 2 0 0 -3.42295 2.35736 -2.13741 5 1.7768 0. 1
</event>
<event>
 4 80 1 -1 -1 -1
 11 -1 0 0 0 0 0 0 4.97428 4.97428 0 0. 9.
 -11 -1 0 0 0 0 0 0 -4.92595 4.92595 0 0. 9.
 15 1 1 2 0 0 -0.696168 -1.00862 4.47881 4.97186 1.7768 0. 1
 -15 1 1 2 0 0 0.696168 1.00862 -4.43048 4.92837 1.7768 0. -1
</event>
<event>
 4 80 1 -1 -1 -1
 11 -1 0 0 0 0 0 0 5 5 0 0. 9.
 -11 -1 0 0 0 0 0 0 -4.79541 4.79541 0 0. 9.
 15 1 1 2 0 0 -2.85599 -0.564025 3.61654 4.9711 1.7768 0. 1
 -15 1 1 2 0 0 2.85599 0.564025 -3.41195 4.8243 1.7768 0. -1
</event>
<event>
 4 80 1 -1 -1 -1
 11 -1 0 0 0 0 0 0 5 5 0 0. 9.
 -11 -1 0 0 0 0 0 0 -5 5 0 0. 9.
 15 1 1 2 0 0 -3.52517 -2.69613 -1.46503 5 1.7768 0. -1
 -15 1 1 2 0 0 3.52517 2.69613 1.46503 5 1.7768 0. 1
</event>
<event>
 4 80 1 -1 -1 -1
 11 -1 0 0 0 0 0 0 4.99753 4.99753 0 0. 9.
 -11 -1 0 0 0 0 0 0 -1.22422 1.22422 0 0. 9.
 15 1 1 2 0 0 0.130111 1.68517 1.4818 2.86534 1.7768 0. 1
 -15 1 1 2 0 0 -0.130111 -1.68517 2.29151 3.35641 1.7768 0. -1
</event>
<event>
 4 80 1 -1 -1 -1
 11 -1 0 0 0 0 0 0 4.99919 4.99919 0 0. 9.
 -11 -1 0 0 0 0 0 0 -5 5 0 0. 9.
 15 1 1 2 0 0 -0.82216 1.74827 4.25469 4.99925 1.7768 0. -1
 -15 1 1 2 0 0 0.82216 -1.74827 -4.2555 4.99994 1.7768 0. 1
</event>
<event>
 4 80 1 -1 -1 -1
 11 -1 0 0 0 0 0 0 1.75618 1.75618 0 0. 9.
 -11 -1 0 0 0 0 0 0 -4.99542 4.99542 0 0. 9.
 15 1 1 2 0 0 -0.131493 -1.54496 0.422694 2.39595 1.7768 0. 1
 -15 1 1 2 0 0 0.131493 1.54496 -3.66193 4.35564 1.7768 0. -1
</event>
<event>
 4 80 1 -1 -1 -1
 11 -1 0 0 0 0 0 0 4.95179 4.95179 0 0. 9.
 -11 -1 0 0 0 0 0 0 -5 5 0 0. 9.
 15 1 1 2 0 0 2.54215 -2.76261 2.71577 4.96263 1.7768 0. -1
 -15 1 1 2 0 0 -2.54215 2.76261 -2.76398 4.98917 1.7768 0. 1
</event>
<event>
 4 80 1 -1 -1 -1
 11 -1 0 0 0 0 0 0 5 5 0 0. 9.
 -11 -1 0 0 0 0 0 0 -2.24437 2.24437 0 0. 9.
 15 1 1 2 0 0 -0.31262 0.635521 4.35134 4.75326 1.7768 0. 1
 -15 1 1 2 0 0 0.31262 -0.635521 -1.59571 2.49111 1.7768 0. -1
</event>
<event>
 4 80 1 -1 -1 -1
 11 -1 0 0 0 0 0 0 5 5 0 0. 9.
 -11 -1 0 0 0 0 0 0 -4.94663 4.94663 0 0. 9.
 15 1 1 2 0 0 -3.82331 -1.95875 1.79334 4.98279 1.7768 0. 1
 -15 1 1 2 0 0 3.82331 1.95875 -1.73997 4.96383 1.7768 0. -1
</event>
<event>
 4 80 1 -1 -1 -1
 11 -1 0 0 0 0 0 0 4.99141 4.99141 0 0. 9.
 -11 -1 0 0 0 0 0 0 -4.85236 4.85236 0 0. 9.
 15 1 1 2 0 0 -3.17649 -2.70627 1.9798 4.94887 1.7768 0. 1
 -15 1 1 2 0 0 3.17649 2.70627 -1.84075 4.8949 1.7768 0. -1
</event>
<event>
 4 80 1 -1 -1 -1
 11 -1 0 0 0 0 0 0 5 5 0 0. 9.
 -11 -1 0 0 0 0 0 0 -5 5 0 0. 9.
 15 1 1 2 0 0 1.7659 -0.468287 -4.3017 5 1.7768 0. -1
 -15 1 1 2 0 0 -1.7659 0.468287 4.3017 5 1.7768 0. 1
</event>
<event>
 4 80 1 -1 -1 -1
 11 -1 0 0 0 0 0 0 4.99989 4.99989 0 0. 9.
 -11 -1 0 0 0 0 0 0 -3.01693 3.01693 0 0. 9.
 15 1 1 2 0 0 -0.0585161 -0.661234 4.48926 4.87359 1.7768 0. 1
 -15 1 1 2 0 0 0.0585161 0.661234 -2.5063 3.14323 1.7768 0. -1
</event>
<event>
 4 80 1 -1 -1 -1
 11 -1 0 0 0 0 0 0 4.99988 4.99988 0 0. 9.
 -11 -1 0 0 0 0 0 0 -4.99996 4.99996 0 0. 9.
 15 1 1 2 0 0 3.74506 1.64993 -2.25698 4.99994 1.7768 0. -1
 -15 1 1 2 0 0 -3.74506 -1.64993 2.2569 4.9999 1.7768 0. 1
</event>
<event>
 4 80 1 -1 -1 -1
 11 -1 0 0 0 0 0 0 4.99925 4.99925 0 0. 9.
 -11 -1 0 0 0 0 0 0 -5 5 0 0. 9.
 15 1 1 2 0 0 4.27906 0.55264 1.79483 4.99949 1.7768 0. -1
 -15 1 1 2 0 0 -4.27906 -0.55264 -1.79558 4.99976 1.7768 0. 1
</event>
<event>
 4 80 1 -1 -1 -1
 11 -1 0 0 0 0 0 0 4.99992 4.99992 0 0. 9.
 -11 -1 0 0 0 0 0 0 -5 5 0 0. 9.
 15 1 1 2 0 0 -3.44327 2.99345 1.01238 4.99995 1.7768 0. 1
 -15 1 1 2 0 0 3.44327 -2.99345 -1.01247 4.99997 1.7768 0. -1
</event>
<event>
 4 80 1 -1 -1 -1
 11 -1 0 0 0 0 0 0 5 5 0 0. 9.
 -11 -1 0 0 0 0 0 0 -4.99373 4.99373 0 0. 9.
 15 1 1 2 0 0 -1.27476 -0.422174 -4.46986 4.99405 1.7768 0. -1
 -15 1 1 2 0 0 1.27476 0.422174 4.47613 4.99967 1.7768 0. 1
</event>
<event>
 4 80 1 -1 -1 -1
 11 -1 0 0 0 0 0 0 5 5 0 0. 9.
 -11 -1 0 0 0 0 0 0 -5 5 0 0. 9.
 15 1 1 2 0 0 -0.243847 -3.50104 -3.08635 5 1.7768 0. -1
 -15 1 1 2 0 0 0.243847 3.50104 3.08635 5 1.7768 0. 1
</event>
<event>
 4 80 1 -1 -1 -1
 11 -1 0 0 0 0 0 0 5 5 0 0. 9.
 -11 -1 0 0 0 0 0 0 -4.96034 4.96034 0 0. 9.
 15 1 1 2 0 0 2.36305 0.668541 3.97119 4.9959 1.7768 0. 1
 -15 1 1 2 0 0 -2.36305 -0.668541 -3.93153 4.96444 1.7768 0. -1
</event>
<event>
 4 80 1 -1 -1 -1
 11 -1 0 0 0 0 0 0 5 5 0 0. 9.
 -11 -1 0 0 0 0 0 0 -5 5 0 0. 9.
 15 1 1 2 0 0 -0.9362 -1.84403 -4.19111 5 1.7768 0. 1
 -15 1 1 2 0 0 0.9362 1.84403 4.19111 5 1.7768 0. -1
</event>
<event>
 4 80 1 -1 -1 -1
 11 -1 0 0 0 0 0 0 1.29457 1.29457 0 0. 9.
 -11 -1 0 0 0 0 0 0 -4.9999 4.9999 0 0. 9.
 15 1 1 2 0 0 1.74425 0.454451 -2.17058 3.33438 1.7768 0. 1
 -15 1 1 2 0 0 -1.74425 -0.454451 -1.53475 2.96009 1.7768 0. -1
</event>
<event>
 4 80 1 -1 -1 -1
 11 -1 0 0 0 0 0 0 4.99996 4.99996 0 0. 9.
 -11 -1 0 0 0 0 0 0 -3.312 3.312 0 0. 9.
 15 1 1 2 0 0 -1.62525 -0.698285 -2.42939 3.49123 1.7768 0. 1
 -15 1 1 2 0 0 1.62525 0.698285 4.11735 4.82072 1.7768 0. -1
</event>
<event>
 4 80 1 -1 -1 -1
 11 -1 0 0 0 0 0 0 4.91379 4.91379 0 0. 9.
 -11 -1 0 0 0 0 0 0 -3.67323 3.67323 0 0. 9.
 15 1 1 2 0 0 3.78539 0.663959 0.267662 4.24257 1.7768 0. 1
 -15 1 1 2 0 0 -3.78539 -0.663959 0.972903 4.34445 1.7768 0. -1
</event>
<event>
 4 80 1 -1 -1 -1
 11 -1 0 0 0 0 0 0 4.99999 4.99999 0 0. 9.
 -11 -1 0 0 0 0 0 0 -4.99987 4.99987 0 0. 9.
 15 1 1 2 0 0 0.50378 -4.61051 -0.57532 4.99993 1.7768 0. -1
 -15 1 1 2 0 0 -0.50378 4.61051 0.57544 4.99994 1.7768 0. 1
</event>
<event>
 4 80 1 -1 -1 -1
 11 -1 0 0 0 0 0 0 1.19858 1.19858 0 0. 9.
 -11 -1 0 0 0 0 0 0 -4.99041 4.99041 0 0. 9.
 15 1 1 2 0 0 -1.14642 -0.61464 -0.549921 2.26984 1.7768 0. 1
 -15 1 1 2 0 0 1.14642 0.61464 -3.2419 3.91915 1.7768 0. -1
</event>
<event>
 4 80 1 -1 -1 -1
 11 -1 0 0 0 0 0 0 0.651799 0.651799 0 0. 9.
 -11 -1 0 0 0 0 0 0 -5 5 0 0. 9.
 15 1 1 2 0 0 0.251204 0.112397 -1.92398 2.63347 1.7768 0. 1
 -15 1 1 2 0 0 -0.251204 -0.112397 -2.42422 3.01833 1.7768 0. -1
</event>
<event>
 4 80 1 -1 -1 -1
 11 -1 0 0 0 0 0 0 4.5406 4.5406 0 0. 9.
 -11 -1 0 0 0 0 0 0 -4.98351 4.98351 0 0. 9.
 15 1 1 2 0 0 -2.57369 1.12525 -3.62813 4.92048 1.7768 0. 1
 -15 1 1 2 0 0 2.57369 -1.12525 3.18522 4.60363 1.7768 0. -1
</event>
<event>
 4 80 1 -1 -1 -1
 11 -1 0 0 0 0 0 0 4.63595 4.63595 0 0. 9.
 -11 -1 0 0 0 0 0 0 -4.98266 4.98266 0 0. 9.
 15 1 1 2 0 0 -2.34667 1.35956 3.37668 4.68135 1.7768 0. -1
 -15 1 1 2 0 0 2.34667 -1.35956 -3.72339 4.93727 1.7768 0. 1
</event>
<event>
 4 80 1 -1 -1 -1
 11 -1 0 0 0 0 0 0 4.9602 4.9602 0 0. 9.
 -11 -1 0 0 0 0 0 0 -4.9973 4.9973 0 0. 9.
 15 1 1 2 0 0 -2.46674 -2.5118 3.02053 4.96742 1.7768 0. 1
 -15 1 1 2 0 0 2.46674 2.5118 -3.05764 4.99007 1.7768 0. -1
</event>
<event>
 4 80 1 -1 -1 -1
 11 -1 0 0 0 0 0 0 5 5 0 0. 9.
 -11 -1 0 0 0 0 0 0 -5 5 0 0. 9.
 15 1 1 2 0 0 2.55157 -1.09616 -3.75902 5 1.7768 0. 1
 -15 1 1 2 0 0 -2.55157 1.09616 3.75902 5 1.7768 0. -1
</event>
<event>
 4 80 1 -1 -1 -1
 11 -1 0 0 0 0 0 0 5 5 0 0. 9.
 -11 -1 0 0 0 0 0 0 -5 5 0 0. 9.
 15 1 1 2 0 0 0.387214 -0.0451468 -4.65728 5 1.7768 0. -1
 -15 1 1 2 0 0 -0.387214 0.0451468 4.65728 5 1.7768 0. 1
</event>
<event>
 4 80 1 -1 -1 -1
 11 -1 0 0 0 0 0 0 4.94638 4.94638 0 0. 9.
 -11 -1 0 0 0 0 0 0 -1.71466 1.71466 0 0. 9.
 15 1 1 2 0 0 -0.396098 0.17125 -0.976241 2.07292 1.7768 0. -1
 -15 1 1 2 0 0 0.396098 -0.17125 4.20796 4.58812 1.7768 0. 1
</event>
<event>
 4 80 1 -1 -1 -1
 11 -1 0 0 0 0 0 0 5 5 0 0. 9.
 -11 -1 0 0 0 0 0 0 -5 5 0 0. 9.
 15 1 1 2 0 0 -2.11361 -0.230209 4.16196 5 1.7768 0. -1
 -15 1 1 2 0 0 2.11361 0.230209 -4.16196 5 1.7768 0. 1
</event>
<event>
 4 80 1 -1 -1 -1
 11 -1 0 0 0 0 0 0 1.18836 1.18836 0 0. 9.
 -11 -1 0 0 0 0 0 0 -4.99518 4.99518 0 0. 9.
 15 1 1 2 0 0 -1.3255 0.780109 -2.71876 3.59373 1.7768 0. 1
 -15 1 1 2 0 0 1.3255 -0.780109 -1.08807 2.58981 1.7768 0. -1
</event>
<event>
 4 80 1 -1 -1 -1
 11 -1 0 0 0 0 0 0 5 5 0 0. 9.
 -11 -1 0 0 0 0 0 0 -4.99936 4.99936 0 0. 9.
 15 1 1 2 0 0 -2.52506 0.937647 3.81922 4.99992 1.7768 0. -1
 -15 1 1 2 0 0 2.52506 -0.937647 -3.81858 4.99944 1.7768 0. 1
</event>
<event>
 4 80 1 -1 -1 -1
 11 -1 0 0 0 0 0 0 5 5 0 0. 9.
 -11 -1 0 0 0 0 0 0 -5 5 0 0. 9.
 15 1 1 2 0 0 -0.263476 -2.81107 3.72434 5 1.7768 0. -1
 -15 1 1 2 0 0 0.263476 2.81107 -3.72434 5 1.7768 0. 1
</event>
<event>
 4 80 1 -1 -1 -1
 11 -1 0 0 0 0 0 0 5 5 0 0. 9.
 -11 -1 0 0 0 0 0 0 -5 5 0 0. 9.
 15 1 1 2 0 0 1.21039 1.02629 -4.3959 5 1.7768 0. -1
 -15 1 1 2 0 0 -1.21039 -1.02629 4.3959 5 1.7768 0. 1
</event>
<event>
 4 80 1 -1 -1 -1
 11 -1 0 0 0 0 0 0 5 5 0 0. 9.
 -11 -1 0 0 0 0 0 0 -4.95822 4.95822 0 0. 9.
 15 1 1 2 0 0 3.58551 -0.749517 -2.84544 4.96708 1.7768 0. -1
 -15 1 1 2 0 0 -3.58551 0.749517 2.88722 4.99114 1.7768 0. 1
</event>
<event>
 4 80 1 -1 -1 -1
 11 -1 0 0 0 0 0 0 4.69289 4.69289 0 0. 9.
 -11 -1 0 0 0 0 0 0 -5 5 0 0. 9.
 15 1 1 2 0 0 3.3212 -0.320014 -3.18393 4.94246 1.7768 0. -1
 -15 1 1 2 0 0 -3.3212 0.320014 2.87682 4.75043 1.7768 0. 1
</event>
<event>
 4 80 1 -1 -1 -1
 11 -1 0 0 0 0 0 0 4.99518 4.99518 0 0. 9.
 -11 -1 0 0 0 0 0 0 -4.99417 4.99417 0 0. 9.
 15 1 1 2 0 0 -2.05643 2.53521 3.33709 4.99501 1.7768 0. 1
 -15 1 1 2 0 0 2.05643 -2.53521 -3.33608 4.99434 1.7768 0. -1
</event>
<event>
 4 80 1 -1 -1 -1
 11 -1 0 0 0 0 0 0 4.82221 4.82221 0 0. 9.
 -11 -1 0 0 0 0 0 0 -5 5 0 0. 9.
 15 1 1 2 0 0 -3.81256 -0.975616 -2.42719 4.95343 1.7768 0. -1
 -15 1 1 2 0 0 3.81256 0.975616 2.2494 4.86878 1.7768 0. 1
</event>
<event>
 4 80 1 -1 -1 -1
 11 -1 0 0 0 0 0 0 4.19216 4.19216 0 0. 9.
 -11 -1 0 0 0 0 0 0 -5 5 0 0. 9.
 15 1 1 2 0 0 0.731967 2.56502 2.87803 4.30765 1.7768 0. 1
 -15 1 1 2 0 0 -0.731967 -2.56502 -3.68587 4.88451 1.7768 0. -1
</event>
<event>
 4 80 1 -1 -1 -1
 11 -1 0 0 0 0 0 0 5 5 0 0. 9.
 -11 -1 0 0 0 0 0 0 -5 5 0 0. 9.
 15 1 1 2 0 0 4.62172 -0.338238 0.606238 5 1.7768 0. 1
 -15 1 1 2 0 0 -4.62172 0.338238 -0.606238 5 1.7768 0. -1
</event>
<event>
 4 80 1 -1 -1 -1
 11 -1 0 0 0 0 0 0 5 5 0 0. 9.
 -11 -1 0 0 0 0 0 0 -4.99963 4.99963 0 0. 9.
 15 1 1 2 0 0 1.77245 -4.20289 1.01731 4.99985 1.7768 0. 1
 -15 1 1 2 0 0 -1.77245 4.20289 -1.01694 4.99978 1.7768 0. -1
</event>
<event>
 4 80 1 -1 -1 -1
 11 -1 0 0 0 0 0 0 5 5 0 0. 9.
 -11 -1 0 0 0 0 0 0 -0.784359 0.784359 0 0. 9.
 15 1 1 2 0 0 -0.775056 0.332157 1.77151 2.64708 1.7768 0. 1
 -15 1 1 2 0 0 0.775056 -0.332157 2.44413 3.13728 1.7768 0. -1
</event>
<event>
 4 80 1 -1 -1 -1
 11 -1 0 0 0 0 0 0 4.99223 4.99223 0 0. 9.
 -11 -1 0 0 0 0 0 0 -5 5 0 0. 9.
 15 1 1 2 0 0 -2.07007 -0.895526 -4.09243 4.99929 1.7768 0. 1
 -15 1 1 2 0 0 2.07007 0.895526 4.08467 4.99294 1.7768 0. -1
</event>
<event>
 4 80 1 -1 -1 -1
 11 -1 0 0 0 0 0 0 4.99991 4.99991 0 0. 9.
 -11 -1 0 0 0 0 0 0 -5 5 0 0. 9.
 15 1 1 2 0 0 -2.00162 -1.23018 4.04 4.99992 1.7768 0. -1
 -15 1 1 2 0 0 2.00162 1.23018 -4.04009 4.99999 1.7768 0. 1
</event>
<event>
 4 80 1 -1 -1 -1
 11 -1 0 0 0 0 0 0 5 5 0 0. 9.
 -11 -1 0 0 0 0 0 0 -4.5055 4.5055 0 0. 9.
 15 1 1 2 0 0 3.94573 -1.80768 0.978478 4.79079 1.7768 0. 1
 -15 1 1 2 0 0 -3.94573 1.80768 -0.483981 4.71471 1.7768 0. -1
</event>
<event>
 4 80 1 -1 -1 -1
 11 -1 0 0 0 0 0 0 5 5 0 0. 9.
 -11 -1 0 0 0 0 0 0 -4.99992 4.99992 0 0. 9.
 15 1 1 2 0 0 2.65291 -1.49754 3.54424 4.99999 1.7768 0. 1
 -15 1 1 2 0 0 -2.65291 1.49754 -3.54416 4.99993 1.7768 0. -1
</event>
<event>
 4 80 1 -1 -1 -1
 11 -1 0 0 0 0 0 0 4.60492 4.60492 0 0. 9.
 -11 -1 0 0 0 0 0 0 -4.99996 4.99996 0 0. 9.
 15 1 1 2 0 0 -0.982266 0.92858 4.05338 4.6276 1.7768 0. -1
 -15 1 1 2 0 0 0.982266 -0.92858 -4.44842 4.97728 1.7768 0. 1
</event>
<event>
 4 80 1 -1 -1 -1
 11 -1 0 0 0 0 0 0 5 5 0 0. 9.
 -11 -1 0 0 0 0 0 0 -5 5 0 0. 9.
 15 1 1 2 0 0 1.57028 1.91498 -3.9635 5 1.7768 0. -1
 -15 1 1 2 0 0 -1.57028 -1.91498 3.9635 5 1.7768 0. 1
</event>
<event>
 4 80 1 -1 -1 -1
 11 -1 0 0 0 0 0 0 4.95624 4.95624 0 0. 9.
 -11 -1 0 0 0 0 0 0 -5 5 0 0. 9.
 15 1 1 2 0 0 1.94216 -1.57449 3.89894 4.96089 1.7768 0. 1
 -15 1 1 2 0 0 -1.94216 1.57449 -3.94269 4.99535 1.7768 0. -1
</event>
<event>
 4 80 1 -1 -1 -1
 11 -1 0 0 0 0 0 0 5 5 0 0. 9.
 -11 -1 0 0 0 0 0 0 -5 5 0 0. 9.
 15 1 1 2 0 0 2.28535 3.98568 0.856618 5 1.7768 0. 1
 -15 1 1 2 0 0 -2.28535 -3.98568 -0.856619 5 1.7768 0. -1
</event>
<event>
 4 80 1 -1 -1 -1
 11 -1 0 0 0 0 0 0 4.98914 4.98914 0 0. 9.
 -11 -1 0 0 0 0 0 0 -4.98442 4.98442 0 0. 9.
 15 1 1 2 0 0 -4.31999 1.5197 0.861684 4.98719 1.7768 0. 1
 -15 1 1 2 0 0 4.31999 -1.5197 -0.856965 4.98638 1.7768 0. -1
</event>
<event>
 4 80 1 -1 -1 -1
 11 -1 0 0 0 0 0 0 5 5 0 0. 9.
 -11 -1 0 0 0 0 0 0 -2.43748 2.43748 0 0. 9.
 15 1 1 2 0 0 0.260196 0.499313 -1.86297 2.63542 1.7768 0. -1
 -15 1 1 2 0 0 -0.260196 -0.499313 4.4255 4.80206 1.7768 0. 1
</event>
<event>
 4 80 1 -1 -1 -1
 11 -1 0 0 0 0 0 0 5 5 0 0. 9.
 -11 -1 0 0 0 0 0 0 -4.73555 4.73555 0 0. 9.
 15 1 1 2 0 0 3.85735 -0.496394 -2.19123 4.80466 1.7768 0. -1
 -15 1 1 2 0 0 -3.85735 0.496394 2.45568 4.93089 1.7768 0. 1
</event>
<event>
 4 80 1 -1 -1 -1
 11 -1 0 0 0 0 0 0 5 5 0 0. 9.
 -11 -1 0 0 0 0 0 0 -5 5 0 0. 9.
 15 1 1 2 0 0 3.05156 -2.27162 -2.71478 5 1.7768 0. -1
 -15 1 1 2 0 0 -3.05156 2.27162 2.71478 5 1.7768 0. 1
</event>
<event>
 4 80 1 -1 -1 -1
 11 -1 0 0 0 0 0 0 4.46086 4.46086 0 0. 9.
 -11 -1 0 0 0 0 0 0 -5 5 0 0. 9.
 15 1 1 2 0 0 -2.62397 3.43424 -0.954319 4.76945 1.7768 0. -1
 -15 1 1 2 0 0 2.62397 -3.43424 0.415177 4.69141 1.7768 0. 1
</event>
<event>
 4 80 1 -1 -1 -1
 11 -1 0 0 0 0 0 0 4.99999 4.99999 0 0. 9.
 -11 -1 0 0 0 0 0 0 -5 5 0 0. 9.
 15 1 1 2 0 0 1.83454 2.13921 3.72833 5 1.7768 0. 1
 -15 1 1 2 0 0 -1.83454 -2.13921 -3.72834 5 1.7768 0. -1
</event>
<event>
 4 80 1 -1 -1 -1
 11 -1 0 0 0 0 0 0 4.99989 4.99989 0 0. 9.
 -11 -1 0 0 0 0 0 0 -5 5 0 0. 9.
 15 1 1 2 0 0 -1.95241 2.14883 3.66223 4.99991 1.7768 0. 1
 -15 1 1 2 0 0 1.95241 -2.14883 -3.66234 4.99999 1.7768 0. -1
</event>
<event>
 4 80 1 -1 -1 -1
 11 -1 0 0 0 0 0 0 5 5 0 0. 9.
 -11 -1 0 0 0 0 0 0 -5 5 0 0. 9.
 15 1 1 2 0 0 3.93656 1.3155 -2.14831 5 1.7768 0. -1
 -15 1 1 2 0 0 -3.93656 -1.3155 2.14831 5 1.7768 0. 1
</event>
<event>
 4 80 1 -1 -1 -1
 11 -1 0 0 0 0 0 0 5 5 0 0. 9.
 -11 -1 0 0 0 0 0 0 -5 5 0 0. 9.
 15 1 1 2 0 0 2.35678 3.76908 -1.44289 5 1.7768 0. 1
 -15 1 1 2 0 0 -2.35678 -3.76908 1.44289 5 1.7768 0. -1
</event>
<event>
 4 80 1 -1 -1 -1
 11 -1 0 0 0 0 0 0 5 5 0 0. 9.
 -11 -1 0 0 0 0 0 0 -5 5 0 0. 9.
 15 1 1 2 0 0 -4.08995 1.73136 -1.45499 5 1.7768 0. 1
 -15 1 1 2 0 0 4.08995 -1.73136 1.45499 5 1.7768 0. -1
</event>
<event>
 4 80 1 -1 -1 -1
 11 -1 0 0 0 0 0 0 5 5 0 0. 9.
 -11 -1 0 0 0 0 0 0 -5 5 0 0. 9.
 15 1 1 2 0 0 0.606217 2.52442 -3.88614 5 1.7768 0. -1
 -15 1 1 2 0 0 -0.606217 -2.52442 3.88614 5 1.7768 0. 1
</event>
<event>
 4 80 1 -1 -1 -1
 11 -1 0 0 0 0 0 0 4.99469 4.99469 0 0. 9.
 -11 -1 0 0 0 0 0 0 -5 5 0 0. 9.
 15 1 1 2 0 0 -2.29628 3.73639 -1.60956 4.9982 1.7768 0. 1
 -15 1 1 2 0 0 2.29628 -3.73639 1.60425 4.99649 1.7768 0. -1
</event>
<event>
 4 80 1 -1 -1 -1
 11 -1 0 0 0 0 0 0 5 5 0 0. 9.
 -11 -1 0 0 0 0 0 0 -5 5 0 0. 9.
 15 1 1 2 0 0 4.59412 -0.49729 -0.69933 5 1.7768 0. -1
 -15 1 1 2 0 0 -4.59412 0.49729 0.69933 5 1.7768 0. 1
</event>
<event>
 4 80 1 -1 -1 -1
 11 -1 0 0 0 0 0 0 4.35166 4.35166 0 0. 9.
 -11 -1 0 0 0 0 0 0 -5 5 0 0. 9.
 15 1 1 2 0 0 -2.05915 3.21469 1.68722 4.53638 1.7768 0. -1
 -15 1 1 2 0 0 2.05915 -3.21469 -2.33556 4.81528 1.7768 0. 1
</event>
<event>
 4 80 1 -1 -1 -1
 11 -1 0 0 0 0 0 0 4.99492 4.99492 0 0. 9.
 -11 -1 0 0 0 0 0 0 -4.97752 4.97752 0 0. 9.
 15 1 1 2 0 0 -2.25484 0.179493 4.08155 4.99332 1.7768 0. -1
 -15 1 1 2 0 0 2.25484 -0.179493 -4.06415 4.97911 1.7768 0. 1
</event>
<event>
 4 80 1 -1 -1 -1
 11 -1 0 0 0 0 0 0 5 5 0 0. 9.
 -11 -1 0 0 0 0 0 0 -5 5 0 0. 9.
 15 1 1 2 0 0 2.03513 -1.22172 4.02591 5 1.7768 0. -1
 -15 1 1 2 0 0 -2.03513 1.22172 -4.02591 5 1.7768 0. 1
</event>
<event>
 4 80 1 -1 -1 -1
 11 -1 0 0 0 0 0 0 5 5 0 0. 9.
 -11 -1 0 0 0 0 0 0 -5 5 0 0. 9.
 15 1 1 2 0 0 1.22861 3.13835 -3.23784 5 1.7768 0. -1
 -15 1 1 2 0 0 -1.22861 -3.13835 3.23784 5 1.7768 0. 1
</event>
<event>
 4 80 1 -1 -1 -1
 11 -1 0 0 0 0 0 0 5 5 0 0. 9.
 -11 -1 0 0 0 0 0 0 -5 5 0 0. 9.
 15 1 1 2 0 0 -1.86878 3.5763 2.35797 5 1.7768 0. 1
 -15 1 1 2 0 0 1.86878 -3.5763 -2.35797 5 1.7768 0. -1
</event>
<event>
 4 80 1 -1 -1 -1
 11 -1 0 0 0 0 0 0 5 5 0 0. 9.
 -11 -1 0 0 0 0 0 0 -5 5 0 0. 9.
 15 1 1 2 0 0 -3.94891 -2.4995 0.0300345 5 1.7768 0. 1
 -15 1 1 2 0 0 3.94891 2.4995 -0.0300345 5 1.7768 0. -1
</event>
<event>
 4 80 1 -1 -1 -1
 11 -1 0 0 0 0 0 0 5 5 0 0. 9.
 -11 -1 0 0 0 0 0 0 -5 5 0 0. 9.
 15 1 1 2 0 0 1.05471 2.01783 -4.08145 5 1.7768 0. 1
 -15 1 1 2 0 0 -1.05471 -2.01783 4.08145 5 1.7768 0. -1
</event>
<event>
 4 80 1 -1 -1 -1
 11 -1 0 0 0 0 0 0 5 5 0 0. 9.
 -11 -1 0 0 0 0 0 0 -5 5 0 0. 9.
 15 1 1 2 0 0 -4.23547 -1.5292 1.25085 5 1.7768 0. 1
 -15 1 1 2 0 0 4.23547 1.5292 -1.25085 5 1.7768 0. -1
</event>
<event>
 4 80 1 -1 -1 -1
 11 -1 0 0 0 0 0 0 4.94387 4.94387 0 0. 9.
 -11 -1 0 0 0 0 0 0 -5 5 0 0. 9.
 15 1 1 2 0 0 0.735179 0.335375 4.5446 4.94612 1.7768 0. -1
 -15 1 1 2 0 0 -0.735179 -0.335375 -4.60074 4.99775 1.7768 0. 1
</event>
<event>
 4 80 1 -1 -1 -1
 11 -1 0 0 0 0 0 0 5 5 0 0. 9.
 -11 -1 0 0 0 0 0 0 -4.72106 4.72106 0 0. 9.
 15 1 1 2 0 0 -1.33241 -1.53205 -3.90262 4.74454 1.7768 0. -1
 -15 1 1 2 0 0 1.33241 1.53205 4.18156 4.97652 1.7768 0. 1
</event>
<event>
 4 80 1 -1 -1 -1
 11 -1 0 0 0 0 0 0 4.96022 4.96022 0 0. 9.
 -11 -1 0 0 0 0 0 0 -4.99622 4.99622 0 0. 9.
 15 1 1 2 0 0 -4.25054 1.43845 -1.23799 4.98263 1.7768 0. 1
 -15 1 1 2 0 0 4.25054 -1.43845 1.202 4.97381 1.7768 0. -1
</event>
<event>
 4 80 1 -1 -1 -1
 11 -1 0 0 0 0 0 0 5 5 0 0. 9.
 -11 -1 0 0 0 0 0 0 -4.80891 4.80891 0 0. 9.
 15 1 1 2 0 0 2.24576 -2.26355 -3.17917 4.84066 1.7768 0. 1
 -15 1 1 2 0 0 -2.24576 2.26355 3.37026 4.96825 1.7768 0. -1
</event>
<event>
 4 80 1 -1 -1 -1
 11 -1 0 0 0 0 0 0 5 5 0 0. 9.
 -11 -1 0 0 0 0 0 0 -5 5 0 0. 9.
 15 1 1 2 0 0 2.52367 -2.21621 -3.24989 5 1.7768 0. 1
 -15 1 1 2 0 0 -2.52367 2.21621 3.24988 5 1.7768 0. -1
</event>
<event>
 4 80 1 -1 -1 -1
 11 -1 0 0 0 0 0 0 4.9996 4.9996 0 0. 9.
 -11 -1 0 0 0 0 0 0 -5 5 0 0. 9.
 15 1 1 2 0 0 3.3051 2.04789 -2.59302 4.9999 1.7768 0. 1
 -15 1 1 2 0 0 -3.3051 -2.04789 2.59262 4.9997 1.7768 0. -1
</event>
<event>
 4 80 1 -1 -1 -1
 11 -1 0 0 0 0 0 0 5 5 0 0. 9.
 -11 -1 0 0 0 0 0 0 -4.7217 4.7217 0 0. 9.
 15 1 1 2 0 0 0.48697 0.0934424 4.63598 4.98958 1.7768 0. -1
 -15 1 1 2 0 0 -0.48697 -0.0934424 -4.35768 4.73212 1.7768 0. 1
</event>
<event>
 4 80 1 -1 -1 -1
 11 -1 0 0 0 0 0 0 5 5 0 0. 9.
 -11 -1 0 0 0 0 0 0 -4.97183 4.97183 0 0. 9.
 15 1 1 2 0 0 2.63757 -2.89555 2.53608 4.99304 1.7768 0. 1
 -15 1 1 2 0 0 -2.63757 2.89555 -2.5079 4.97879 1.7768 0. -1
</event>
<event>
 4 80 1 -1 -1 -1
 11 -1 0 0 0 0 0 0 5 5 0 0. 9.
 -11 -1 0 0 0 0 0 0 -5 5 0 0. 9.
 15 1 1 2 0 0 2.03134 1.33677 -3.99111 5 1.7768 0. 1
 -15 1 1 2 0 0 -2.03134 -1.33677 3.99111 5 1.7768 0. -1
</event>
<event>
 4 80 1 -1 -1 -1
 11 -1 0 0 0 0 0 0 5 5 0 0. 9.
 -11 -1 0 0 0 0 0 0 -5 5 0 0. 9.
 15 1 1 2 0 0 0.959283 -1.22351 -4.40739 5 1.7768 0. 1
 -15 1 1 2 0 0 -0.959283 1.22351 4.40739 5 1.7768 0. -1
</event>
<event>
 4 80 1 -1 -1 -1
 11 -1 0 0 0 0 0 0 4.99697 4.99697 0 0. 9.
 -11 -1 0 0 0 0 0 0 -5 5 0 0. 9.
 15 1 1 2 0 0 -4.56281 0.964636 0.276651 4.9984 1.7768 0. 1
 -15 1 1 2 0 0 4.56281 -0.964636 -0.279677 4.99857 1.7768 0. -1
</event>
<event>
 4 80 1 -1 -1 -1
 11 -1 0 0 0 0 0 0 4.97466 4.97466 0 0. 9.
 -11 -1 0 0 0 0 0 0 -5 5 0 0. 9.
 15 1 1 2 0 0 -0.200962 -1.93666 4.22108 4.97658 1.7768 0. -1
 -15 1 1 2 0 0 0.200962 1.93666 -4.24642 4.99808 1.7768 0. 1
</event>
<event>
 4 80 1 -1 -1 -1
 11 -1 0 0 0 0 0 0 5 5 0 0. 9.
 -11 -1 0 0 0 0 0 0 -5 5 0 0. 9.
 15 1 1 2 0 0 -1.22109 3.24952 3.12919 5 1.7768 0. 1
 -15 1 1 2 0 0 1.22109 -3.24952 -3.12919 5 1.7768 0. -1
</event>
<event>
 4 80 1 -1 -1 -1
 11 -1 0 0 0 0 0 0 5 5 0 0. 9.
 -11 -1 0 0 0 0 0 0 -4.99838 4.99838 0 0. 9.
 15 1 1 2 0 0 -1.52682 -0.853036 -4.33224 4.99848 1.7768 0. -1
 -15 1 1 2 0 0 1.52682 0.853036 4.33386 4.99989 1.7768 0. 1
</event>
<event>
 4 80 1 -1 -1 -1
 11 -1 0 0 0 0 0 0 5 5 0 0. 9.
 -11 -1 0 0 0 0 0 0 -4.99983 4.99983 0 0. 9.
 15 1 1 2 0 0 -1.49807 -3.91846 2.05992 4.99995 1.7768 0. 1
 -15 1 1 2 0 0 1.49807 3.91846 -2.05975 4.99988 1.7768 0. -1
</event>
<event>
 4 80 1 -1 -1 -1
 11 -1 0 0 0 0 0 0 4.63527 4.63527 0 0. 9.
 -11 -1 0 0 0 0 0 0 -4.99999 4.99999 0 0. 9.
 15 1 1 2 0 0 -3.11267 -3.19863 -0.496666 4.82952 1.7768 0. -1
 -15 1 1 2 0 0 3.11267 3.19863 0.131948 4.80573 1.7768 0. 1
</event>
<event>
 4 80 1 -1 -1 -1
 11 -1 0 0 0 0 0 0 5 5 0 0. 9.
 -11 -1 0 0 0 0 0 0 -5 5 0 0. 9.
 15 1 1 2 0 0 1.09575 -4.47612 -0.778449 5 1.7768 0. 1
 -15 1 1 2 0 0 -1.09575 4.47612 0.778449 5 1.7768 0. -1
</event>
<event>
 4 80 1 -1 -1 -1
 11 -1 0 0 0 0 0 0 5 5 0 0. 9.
 -11 -1 0 0 0 0 0 0 -2.8891 2.8891 0 0. 9.
 15 1 1 2 0 0 0.192167 0.939271 4.39733 4.83874 1.7768 0. 1
 -15 1 1 2 0 0 -0.192167 -0.939271 -2.28643 3.05036 1.7768 0. -1
</event>
<event>
 4 80 1 -1 -1 -1
 11 -1 0 0 0 0 0 0 1.40512 1.40512 0 0. 9.
 -11 -1 0 0 0 0 0 0 -5 5 0 0. 9.
 15 1 1 2 0 0 -1.4741 1.23332 -2.30117 3.48527 1.7768 0. 1
 -15 1 1 2 0 0 1.4741 -1.23332 -1.29372 2.91984 1.7768 0. -1
</event>
<event>
 4 80 1 -1 -1 -1
 11 -1 0 0 0 0 0 0 4.99014 4.99014 0 0. 9.
 -11 -1 0 0 0 0 0 0 -5 5 0 0. 9.
 15 1 1 2 0 0 1.85483 3.56229 2.37472 4.99272 1.7768 0. -1
 -15 1 1 2 0 0 -1.85483 -3.56229 -2.38457 4.99742 1.7768 0. 1
</event>
<event>
 4 80 1 -1 -1 -1
 11 -1 0 0 0 0 0 0 4.99996 4.99996 0 0. 9.
 -11 -1 0 0 0 0 0 0 -2.07181 2.07181 0 0. 9.
 15 1 1 2 0 0 -0.814755 -2.29864 2.69414 4.04521 1.7768 0. 1
 -15 1 1 2 0 0 0.814755 2.29864 0.234005 3.02656 1.7768 0. -1
</event>
<event>
 4 80 1 -1 -1 -1
 11 -1 0 0 0 0 0 0 5 5 0 0. 9.
 -11 -1 0 0 0 0 0 0 -4.99983 4.99983 0 0. 9.
 15 1 1 2 0 0 -3.42349 -1.80239 -2.62148 4.99987 1.7768 0. -1
 -15 1 1 2 0 0 3.42349 1.80239 2.62164 4.99996 1.7768 0. 1
</event>
<event>
 4 80 1 -1 -1 -1
 11 -1 0 0 0 0 0 0 5 5 0 0. 9.
 -11 -1 0 0 0 0 0 0 -5 5 0 0. 9.
 15 1 1 2 0 0 -3.94587 -2.44158 -0.557711 5 1.7768 0. -1
 -15 1 1 2 0 0 3.94587 2.44158 0.557711 5 1.7768 0. 1
</event>
<event>
 4 80 1 -1 -1 -1
 11 -1 0 0 0 0 0 0 5 5 0 0. 9.
 -11 -1 0 0 0 0 0 0 -5 5 0 0. 9.
 15 1 1 2 0 0 -3.97089 -1.63197 1.84689 5 1.7768 0. 1
 -15 1 1 2 0 0 3.97089 1.63197 -1.84689 5 1.7768 0. -1
</event>
<event>
 4 80 1 -1 -1 -1
 11 -1 0 0 0 0 0 0 3.18586 3.18586 0 0. 9.
 -11 -1 0 0 0 0 0 0 -4.96196 4.96196 0 0. 9.
 15 1 1 2 0 0 2.44615 -0.662312 1.66905 3.5165 1.7768 0. 1
 -15 1 1 2 0 0 -2.44615 0.662312 -3.44515 4.63132 1.7768 0. -1
</event>
<event>
 4 80 1 -1 -1 -1
 11 -1 0 0 0 0 0 0 4.99978 4.99978 0 0. 9.
 -11 -1 0 0 0 0 0 0 -5 5 0 0. 9.
 15 1 1 2 0 0 -2.23662 -3.18895 -2.58261 4.99995 1.7768 0. 1
 -15 1 1 2 0 0 2.23662 3.18895 2.58239 4.99983 1.7768 0. -1
</event>
<event>
 4 80 1 -1 -1 -1
 11 -1 0 0 0 0 0 0 5 5 0 0. 9.
 -11 -1 0 0 0 0 0 0 -5 5 0 0. 9.
 15 1 1 2 0 0 -0.507832 -0.720047 4.58976 5 1.7768 0. -1
 -15 1 1 2 0 0 0.507832 0.720047 -4.58976 5 1.7768 0. 1
</event>
<event>
 4 80 1 -1 -1 -1
 11 -1 0 0 0 0 0 0 5 5 0 0. 9.
 -11 -1 0 0 0 0 0 0 -5 5 0 0. 9.
 15 1 1 2 0 0 4.21368 0.212743 -2.01045 5 1.7768 0. 1
 -15 1 1 2 0 0 -4.21368 -0.212743 2.01045 5 1.7768 0. -1
</event>
<event>
 4 80 1 -1 -1 -1
 11 -1 0 0 0 0 0 0 5 5 0 0. 9.
 -11 -1 0 0 0 0 0 0 -5 5 0 0. 9.
 15 1 1 2 0 0 -3.72745 -2.64418 0.978127 5 1.7768 0. -1
 -15 1 1 2 0 0 3.72745 2.64418 -0.978127 5 1.7768 0. 1
</event>
<event>
 4 80 1 -1 -1 -1
 11 -1 0 0 0 0 0 0 5 5 0 0. 9.
 -11 -1 0 0 0 0 0 0 -4.99686 4.99686 0 0. 9.
 15 1 1 2 0 0 -0.577314 0.526931 -4.60447 4.99698 1.7768 0. 1
 -15 1 1 2 0 0 0.577314 -0.526931 4.60761 4.99988 1.7768 0. -1
</event>
<event>
 4 80 1 -1 -1 -1
 11 -1 0 0 0 0 0 0 4.97263 4.97263 0 0. 9.
 -11 -1 0 0 0 0 0 0 -4.97905 4.97905 0 0. 9.
 15 1 1 2 0 0 1.17141 1.78072 -4.13336 4.97851 1.7768 0. -1
 -15 1 1 2 0 0 -1.17141 -1.78072 4.12693 4.97317 1.7768 0. 1
</event>
<event>
 4 80 1 -1 -1 -1
 11 -1 0 0 0 0 0 0 5 5 0 0. 9.
 -11 -1 0 0 0 0 0 0 -4.9303 4.9303 0 0. 9.
 15 1 1 2 0 0 0.877996 -1.68002 4.26584 4.99485 1.7768 0. -1
 -15 1 1 2 0 0 -0.877996 1.68002 -4.19615 4.93545 1.7768 0. 1
</event>
<event>
 4 80 1 -1 -1 -1
 11 -1 0 0 0 0 0 0 4.99665 4.99665 0 0. 9.
 -11 -1 0 0 0 0 0 0 -5 5 0 0. 9.
 15 1 1 2 0 0 2.89027 2.74871 2.43071 4.99751 1.7768 0. -1
 -15 1 1 2 0 0 -2.89027 -2.74871 -2.43405 4.99914 1.7768 0. 1
</event>
<event>
 4 80 1 -1 -1 -1
 11 -1 0 0 0 0 0 0 5 5 0 0. 9.
 -11 -1 0 0 0 0 0 0 -5 5 0 0. 9.
 15 1 1 2 0 0 -0.426909 -1.90076 -4.24819 5 1.7768 0. 1
 -15 1 1 2 0 0 0.426909 1.90076 4.24819 5 1.7768 0. -1
</event>
<event>
 4 80 1 -1 -1 -1
 11 -1 0 0 0 0 0 0 4.98954 4.98954 0 0. 9.
 -11 -1 0 0 0 0 0 0 -4.52592 4.52592 0 0. 9.
 15 1 1 2 0 0 0.383149 -3.33401 -2.62853 4.61837 1.7768 0. -1
 -15 1 1 2 0 0 -0.383149 3.33401 3.09215 4.89709 1.7768 0. 1
</event>
<event>
 4 80 1 -1 -1 -1
 11 -1 0 0 0 0 0 0 4.92919 4.92919 0 0. 9.
 -11 -1 0 0 0 0 0 0 -4.99992 4.99992 0 0. 9.
 15 1 1 2 0 0 -3.72165 -0.797312 2.61072 4.9457 1.7768 0. -1
 -15 1 1 2 0 0 3.72165 0.797312 -2.68145 4.9834 1.7768 0. 1
</event>
<event>
 4 80 1 -1 -1 -1
 11 -1 0 0 0 0 0 0 1.29413 1.29413 0 0. 9.
 -11 -1 0 0 0 0 0 0 -5 5 0 0. 9.
 15 1 1 2 0 0 -0.542836 1.55226 -2.81821 3.7154 1.7768 0. -1
 -15 1 1 2 0 0 0.542836 -1.55226 -0.887656 2.57873 1.7768 0. 1
</event>
<event>
 4 80 1 -1 -1 -1
 11 -1 0 0 0 0 0 0 4.99998 4.99998 0 0. 9.
 -11 -1 0 0 0 0 0 0 -5 5 0 0. 9.
 15 1 1 2 0 0 1.83141 2.74073 -3.31309 5 1.7768 0. -1
 -15 1 1 2 0 0 -1.83141 -2.74073 3.31306 4.99998 1.7768 0. 1
</event>
<event>
 4 80 1 -1 -1 -1
 11 -1 0 0 0 0 0 0 5 5 0 0. 9.
 -11 -1 0 0 0 0 0 0 -5 5 0 0. 9.
 15 1 1 2 0 0 -2.36265 3.65291 -1.70775 5 1.7768 0. -1
 -15 1 1 2 0 0 2.36265 -3.65291 1.70775 5 1.7768 0. 1
</event>
<event>
 4 80 1 -1 -1 -1
 11 -1 0 0 0 0 0 0 5 5 0 0. 9.
 -11 -1 0 0 0 0 0 0 -4.9743 4.9743 0 0. 9.
 15 1 1 2 0 0 -3.89539 -2.5009 -0.521228 4.98577 1.7768 0. 1
 -15 1 1 2 0 0 3.89539 2.5009 0.546926 4.98853 1.7768 0. -1
</event>
<event>
 4 80 1 -1 -1 -1
 11 -1 0 0 0 0 0 0 0.78599 0.78599 0 0. 9.
 -11 -1 0 0 0 0 0 0 -4.86842 4.86842 0 0. 9.
 15 1 1 2 0 0 -0.143694 0.263066 -3.14092 3.62118 1.7768 0. 1
 -15 1 1 2 0 0 0.143694 -0.263066 -0.941514 2.03323 1.7768 0. -1
</event>
<event>
 4 80 1 -1 -1 -1
 11 -1 0 0 0 0 0 0 5 5 0 0. 9.
 -11 -1 0 0 0 0 0 0 -5 5 0 0. 9.
 15 1 1 2 0 0 2.98409 -3.22785 1.58695 5 1.7768 0. 1
 -15 1 1 2 0 0 -2.98409 3.22785 -1.58695 5 1.7768 0. -1
</event>
<event>
 4 80 1 -1 -1 -1
 11 -1 0 0 0 0 0 0 5 5 0 0. 9.
 -11 -1 0 0 0 0 0 0 -5 5 0 0. 9.
 15 1 1 2 0 0 2.63672 -1.71419 -3.4571 5 1.7768 0. -1
 -15 1 1 2 0 0 -2.63672 1.71419 3.4571 5 1.7768 0. 1
</event>
<event>
 4 80 1 -1 -1 -1
 11 -1 0 0 0 0 0 0 1.6428 1.6428 0 0. 9.
 -11 -1 0 0 0 0 0 0 -5 5 0 0. 9.
 15 1 1 2 0 0 -0.162523 -0.531186 0.846542 2.04522 1.7768 0. 1
 -15 1 1 2 0 0 0.162523 0.531186 -4.20374 4.59758 1.7768 0. -1
</event>
<event>
 4 80 1 -1 -1 -1
 11 -1 0 0 0 0 0 0 4.81563 4.81563 0 0. 9.
 -11 -1 0 0 0 0 0 0 -5 5 0 0. 9.
 15 1 1 2 0 0 -1.29662 -3.7971 -2.28831 4.94907 1.7768 0. -1
 -15 1 1 2 0 0 1.29662 3.7971 2.10394 4.86657 1.7768 0. 1
</event>
<event>
 4 80 1 -1 -1 -1
 11 -1 0 0 0 0 0 0 5 5 0 0. 9.
 -11 -1 0 0 0 0 0 0 -5 5 0 0. 9.
 15 1 1 2 0 0 -0.548605 4.61006 0.537298 5 1.7768 0. 1
 -15 1 1 2 0 0 0.548605 -4.61006 -0.537298 5 1.7768 0. -1
</event>
<event>
 4 80 1 -1 -1 -1
 11 -1 0 0 0 0 0 0 4.99999 4.99999 0 0. 9.
 -11 -1 0 0 0 0 0 0 -5 5 0 0. 9.
 15 1 1 2 0 0 2.98991 -3.5894 0.137278 4.99999 1.7768 0. -1
 -15 1 1 2 0 0 -2.98991 3.5894 -0.137292 4.99999 1.7768 0. 1
</event>
<event>
 4 80 1 -1 -1 -1
 11 -1 0 0 0 0 0 0 4.99577 4.99577 0 0. 9.
 -11 -1 0 0 0 0 0 0 -5 5 0 0. 9.
 15 1 1 2 0 0 1.85054 -0.843655 4.20323 4.99611 1.7768 0. 1
 -15 1 1 2 0 0 -1.85054 0.843655 -4.20746 4.99966 1.7768 0. -1
</event>
<event>
 4 80 1 -1 -1 -1
 11 -1 0 0 0 0 0 0 4.80039 4.80039 0 0. 9.
 -11 -1 0 0 0 0 0 0 -4.99746 4.99746 0 0. 9.
 15 1 1 2 0 0 1.24711 1.47402 4.038 4.81572 1.7768 0. 1
 -15 1 1 2 0 0 -1.24711 -1.47402 -4.23508 4.98213 1.7768 0. -1
</event>
<event>
 4 80 1 -1 -1 -1
 11 -1 0 0 0 0 0 0 5 5 0 0. 9.
 -11 -1 0 0 0 0 0 0 -4.99113 4.99113 0 0. 9.
 15 1 1 2 0 0 -2.23602 3.11412 2.66909 4.99793 1.7768 0. -1
 -15 1 1 2 0 0 2.23602 -3.11412 -2.66023 4.9932 1.7768 0. 1
</event>
<event>
 4 80 1 -1 -1 -1
 11 -1 0 0 0 0 0 0 5 5 0 0. 9.
 -11 -1 0 0 0 0 0 0 -4.99263 4.99263 0 0. 9.
 15 1 1 2 0 0 -1.44995 -3.39483 2.86344 4.99842 1.7768 0. -1
 -15 1 1 2 0 0 1.44995 3.39483 -2.85607 4.9942 1.7768 0. 1
</event>
<event>
 4 80 1 -1 -1 -1
 11 -1 0 0 0 0 0 0 5 5 0 0. 9.
 -11 -1 0 0 0 0 0 0 -4.98436 4.98436 0 0. 9.
 15 1 1 2 0 0 -1.90199 1.93964 3.80049 4.99812 1.7768 0. -1
 -15 1 1 2 0 0 1.90199 -1.93964 -3.78486 4.98624 1.7768 0. 1
</event>
<event>
 4 80 1 -1 -1 -1
 11 -1 0 0 0 0 0 0 5 5 0 0. 9.
 -11 -1 0 0 0 0 0 0 -5 5 0 0. 9.
 15 1 1 2 0 0 1.2709 -1.65348 4.18247 5 1.7768 0. 1
 -15 1 1 2 0 0 -1.2709 1.65348 -4.18247 5 1.7768 0. -1
</event>
<event>
 4 80 1 -1 -1 -1
 11 -1 0 0 0 0 0 0 5 5 0 0. 9.
 -11 -1 0 0 0 0 0 0 -4.99971 4.99971 0 0. 9.
 15 1 1 2 0 0 3.57641 -2.67673 -1.37291 4.99982 1.7768 0. 1
 -15 1 1 2 0 0 -3.57641 2.67673 1.3732 4.9999 1.7768 0. -1
</event>
<event>
 4 80 1 -1 -1 -1
 11 -1 0 0 0 0 0 0 5 5 0 0. 9.
 -11 -1 0 0 0 0 0 0 -5 5 0 0. 9.
 15 1 1 2 0 0 1.32828 0.0163388 4.48081 5 1.7768 0. -1
 -15 1 1 2 0 0 -1.32828 -0.0163388 -4.48081 5 1.7768 0. 1
</event>
<event>
 4 80 1 -1 -1 -1
 11 -1 0 0 0 0 0 0 4.99998 4.99998 0 0. 9.
 -11 -1 0 0 0 0 0 0 -1.6126 1.6126 0 0. 9.
 15 1 1 2 0 0 -0.633087 0.745586 4.00742 4.49153 1.7768 0. -1
 -15 1 1 2 0 0 0.633087 -0.745586 -0.620042 2.12106 1.7768 0. 1
</event>
<event>
 4 80 1 -1 -1 -1
 11 -1 0 0 0 0 0 0 4.99987 4.99987 0 0. 9.
 -11 -1 0 0 0 0 0 0 -4.45786 4.45786 0 0. 9.
 15 1 1 2 0 0 -0.366429 -3.00754 -2.88877 4.54778 1.7768 0. 1
 -15 1 1 2 0 0 0.366429 3.00754 3.43078 4.90994 1.7768 0. -1
</event>
<event>
 4 80 1 -1 -1 -1
 11 -1 0 0 0 0 0 0 4.98679 4.98679 0 0. 9.
 -11 -1 0 0 0 0 0 0 -5 5 0 0. 9.
 15 1 1 2 0 0 -0.417453 -0.679624 4.59123 4.98732 1.7768 0. -1
 -15 1 1 2 0 0 0.417453 0.679624 -4.60444 4.99948 1.7768 0. 1
</event>
<event>
 4 80 1 -1 -1 -1
 11 -1 0 0 0 0 0 0 5 5 0 0. 9.
 -11 -1 0 0 0 0 0 0 -4.86986 4.86986 0 0. 9.
 15 1 1 2 0 0 2.66698 3.16371 -1.95246 4.90833 1.7768 0. -1
 -15 1 1 2 0 0 -2.66698 -3.16371 2.0826 4.96153 1.7768 0. 1
</event>
<event>
 4 80 1 -1 -1 -1
 11 -1 0 0 0 0 0 0 5 5 0 0. 9.
 -11 -1 0 0 0 0 0 0 -5 5 0 0. 9.
 15 1 1 2 0 0 -2.20541 -4.11798 -0.143761 5 1.7768 0. -1
 -15 1 1 2 0 0 2.20541 4.11798 0.143761 5 1.7768 0. 1
</event>
<event>
 4 80 1 -1 -1 -1
 11 -1 0 0 0 0 0 0 4.97132 4.97132 0 0. 9.
 -11 -1 0 0 0 0 0 0 -5 5 0 0. 9.
 15 1 1 2 0 0 1.25131 1.66809 4.15108 4.97368 1.7768 0. -1
 -15 1 1 2 0 0 -1.25131 -1.66809 -4.17976 4.99764 1.7768 0. 1
</event>
<event>
 4 80 1 -1 -1 -1
 11 -1 0 0 0 0 0 0 4.55341 4.55341 0 0. 9.
 -11 -1 0 0 0 0 0 0 -4.99745 4.99745 0 0. 9.
 15 1 1 2 0 0 1.32977 -3.93263 1.31714 4.70387 1.7768 0. 1
 -15 1 1 2 0 0 -1.32977 3.93263 -1.76118 4.84699 1.7768 0. -1
</event>
<event>
 4 80 1 -1 -1 -1
 11 -1 0 0 0 0 0 0 5 5 0 0. 9.
 -11 -1 0 0 0 0 0 0 -5 5 0 0. 9.
 15 1 1 2 0 0 2.77992 3.40513 1.58725 5 1.7768 0. 1
 -15 1 1 2 0 0 -2.77992 -3.40513 -1.58725 5 1.7768 0. -1
</event>
<event>
 4 80 1 -1 -1 -1
 11 -1 0 0 0 0 0 0 5 5 0 0. 9.
 -11 -1 0 0 0 0 0 0 -5 5 0 0. 9.
 15 1 1 2 0 0 2.3655 -3.77025 -1.42545 5 1.7768 0. -1
 -15 1 1 2 0 0 -2.3655 3.77025 1.42545 5 1.7768 0. 1
</event>
<event>
 4 80 1 -1 -1 -1
 11 -1 0 0 0 0 0 0 5 5 0 0. 9.
 -11 -1 0 0 0 0 0 0 -4.99999 4.99999 0 0. 9.
 15 1 1 2 0 0 -3.97755 0.717377 2.34664 5 1.7768 0. 1
 -15 1 1 2 0 0 3.97755 -0.717377 -2.34663 4.99999 1.7768 0. -1
</event>
<event>
 4 80 1 -1 -1 -1
 11 -1 0 0 0 0 0 0 5 5 0 0. 9.
 -11 -1 0 0 0 0 0 0 -5 5 0 0. 9.
 15 1 1 2 0 0 3.98998 0.142343 2.42942 5 1.7768 0. 1
 -15 1 1 2 0 0 -3.98998 -0.142343 -2.42942 5 1.7768 0. -1
</event>
<event>
 4 80 1 -1 -1 -1
 11 -1 0 0 0 0 0 0 4.99935 4.99935 0 0. 9.
 -11 -1 0 0 0 0 0 0 -0.771733 0.771733 0 0. 9.
 15 1 1 2 0 0 -0.708463 0.330832 1.67539 2.56438 1.7768 0. 1
 -15 1 1 2 0 0 0.708463 -0.330832 2.55223 3.2067 1.7768 0. -1
</event>
<event>
 4 80 1 -1 -1 -1
 11 -1 0 0 0 0 0 0 4.99969 4.99969 0 0. 9.
 -11 -1 0 0 0 0 0 0 -4.99993 4.99993 0 0. 9.
 15 1 1 2 0 0 4.57353 0.919946 -0.277441 4.99982 1.7768 0. 1
 -15 1 1 2 0 0 -4.57353 -0.919946 0.277196 4.9998 1.7768 0. -1
</event>
<event>
 4 80 1 -1 -1 -1
 11 -1 0 0 0 0 0 0 4.2962 4.2962 0 0. 9.
 -11 -1 0 0 0 0 0 0 -5 5 0 0. 9.
 15 1 1 2 0 0 -0.0597208 -1.03937 -4.51589 4.96335 1.7768 0. 1
 -15 1 1 2 0 0 0.0597208 1.03937 3.81209 4.33285 1.7768 0. -1
</event>
<event>
 4 80 1 -1 -1 -1
 11 -1 0 0 0 0 0 0 5 5 0 0. 9.
 -11 -1 0 0 0 0 0 0 -5 5 0 0. 9.
 15 1 1 2 0 0 -3.63958 -2.57198 -1.40735 5 1.7768 0. -1
 -15 1 1 2 0 0 3.63958 2.57198 1.40735 5 1.7768 0. 1
</event>
<event>
 4 80 1 -1 -1 -1
 11 -1 0 0 0 0 0 0 5 5 0 0. 9.
 -11 -1 0 0 0 0 0 0 -4.99999 4.99999 0 0. 9.
 15 1 1 2 0 0 0.0908026 3.7156 2.83343 5 1.7768 0. -1
 -15 1 1 2 0 0 -0.0908026 -3.7156 -2.83342 4.99999 1.7768 0. 1
</event>
<event>
 4 80 1 -1 -1 -1
 11 -1 0 0 0 0 0 0 4.98299 4.98299 0 0. 9.
 -11 -1 0 0 0 0 0 0 -2.49771 2.49771 0 0. 9.
 15 1 1 2 0 0 0.340145 3.01324 0.919232 3.63291 1.7768 0. 1
 -15 1 1 2 0 0 -0.340145 -3.01324 1.56604 3.84779 1.7768 0. -1
</event>
<event>
 4 80 1 -1 -1 -1
 11 -1 0 0 0 0 0 0 4.1471 4.1471 0 0. 9.
 -11 -1 0 0 0 0 0 0 -4.99998 4.99998 0 0. 9.
 15 1 1 2 0 0 -2.24146 3.01599 -2.29397 4.74767 1.7768 0. -1
 -15 1 1 2 0 0 2.24146 -3.01599 1.44108 4.39941 1.7768 0. 1
</event>
<event>
 4 80 1 -1 -1 -1
 11 -1 0 0 0 0 0 0 5 5 0 0. 9.
 -11 -1 0 0 0 0 0 0 -4.10445 4.10445 0 0. 9.
 15 1 1 2 0 0 -0.445481 1.05048 -3.57957 4.15608 1.7768 0. -1
 -15 1 1 2 0 0 0.445481 -1.05048 4.47512 4.94837 1.7768 0. 1
</event>
<event>
 4 80 1 -1 -1 -1
 11 -1 0 0 0 0 0 0 4.84834 4.84834 0 0. 9.
 -11 -1 0 0 0 0 0 0 -5 5 0 0. 9.
 15 1 1 2 0 0 1.76635 1.58096 3.85714 4.86361 1.7768 0. 1
 -15 1 1 2 0 0 -1.76635 -1.58096 -4.0088 4.98474 1.7768 0. -1
</event>
<event>
 4 80 1 -1 -1 -1
 11 -1 0 0 0 0 0 0 5 5 0 0. 9.
 -11 -1 0 0 0 0 0 0 -4.99999 4.99999 0 0. 9.
 15 1 1 2 0 0 1.04664 2.39705 3.87311 5 1.7768 0. -1
 -15 1 1 2 0 0 -1.04664 -2.39705 -3.87309 4.99999 1.7768 0. 1
</event>
<event>
 4 80 1 -1 -1 -1
 11 -1 0 0 0 0 0 0 5 5 0 0. 9.
 -11 -1 0 0 0 0 0 0 -4.99983 4.99983 0 0. 9.
 15 1 1 2 0 0 -2.41959 -3.00197 -2.64097 4.99987 1.7768 0. -1
 -15 1 1 2 0 0 2.41959 3.00197 2.64114 4.99996 1.7768 0. 1
</event>
<event>
 4 80 1 -1 -1 -1
 11 -1 0 0 0 0 0 0 4.9274 4.9274 0 0. 9.
 -11 -1 0 0 0 0 0 0 -4.9995 4.9995 0 0. 9.
 15 1 1 2 0 0 2.50009 -2.14736 3.22214 4.93979 1.7768 0. -1
 -15 1 1 2 0 0 -2.50009 2.14736 -3.29423 4.98711 1.7768 0. 1
</event>
<event>
 4 80 1 -1 -1 -1
 11 -1 0 0 0 0 0 0 1.4943 1.4943 0 0. 9.
 -11 -1 0 0 0 0 0 0 -4.65837 4.65837 0 0. 9.
 15 1 1 2 0 0 -0.0924762 1.28874 -3.2853 3.95226 1.7768 0. -1
 -15 1 1 2 0 0 0.0924762 -1.28874 0.121225 2.20041 1.7768 0. 1
</event>
<event>
 4 80 1 -1 -1 -1
 11 -1 0 0 0 0 0 0 5 5 0 0. 9.
 -11 -1 0 0 0 0 0 0 -4.99768 4.99768 0 0. 9.
 15 1 1 2 0 0 1.66089 -2.95753 -3.21211 4.99809 1.7768 0. 1
 -15 1 1 2 0 0 -1.66089 2.95753 3.21443 4.99959 1.7768 0. -1
</event>
<event>
 4 80 1 -1 -1 -1
 11 -1 0 0 0 0 0 0 4.94986 4.94986 0 0. 9.
 -11 -1 0 0 0 0 0 0 -4.99998 4.99998 0 0. 9.
 15 1 1 2 0 0 1.65314 4.10177 -1.45131 4.98211 1.7768 0. 1
 -15 1 1 2 0 0 -1.65314 -4.10177 1.40118 4.96774 1.7768 0. -1
</event>
<event>
 4 80 1 -1 -1 -1
 11 -1 0 0 0 0 0 0 4.99997 4.99997 0 0. 9.
 -11 -1 0 0 0 0 0 0 -4.99982 4.99982 0 0. 9.
 15 1 1 2 0 0 2.83186 1.13773 -3.53933 4.99984 1.7768 0. 1
 -15 1 1 2 0 0 -2.83186 -1.13773 3.53948 4.99995 1.7768 0. -1
</event>
<event>
 4 80 1 -1 -1 -1
 11 -1 0 0 0 0 0 0 3.58397 3.58397 0 0. 9.
 -11 -1 0 0 0 0 0 0 -5 5 0 0. 9.
 15 1 1 2 0 0 -0.394197 -2.38652 2.31863 3.79271 1.7768 0. 1
 -15 1 1 2 0 0 0.394197 2.38652 -3.73465 4.79127 1.7768 0. -1
</event>
<event>
 4 80 1 -1 -1 -1
 11 -1 0 0 0 0 0 0 4.99991 4.99991 0 0. 9.
 -11 -1 0 0 0 0 0 0 -4.99958 4.99958 0 0. 9.
 15 1 1 2 0 0 1.87187 2.37771 3.56139 4.99986 1.7768 0. 1
 -15 1 1 2 0 0 -1.87187 -2.37771 -3.56105 4.99962 1.7768 0. -1
</event>
<event>
 4 80 1 -1 -1 -1
 11 -1 0 0 0 0 0 0 4.99999 4.99999 0 0. 9.
 -11 -1 0 0 0 0 0 0 -5 5 0 0. 9.
 15 1 1 2 0 0 -1.78007 2.97517 -3.134 5 1.7768 0. 1
 -15 1 1 2 0 0 1.78007 -2.97517 3.13399 4.99999 1.7768 0. -1
</event>
<event>
 4 80 1 -1 -1 -1
 11 -1 0 0 0 0 0 0 4.74133 4.74133 0 0. 9.
 -11 -1 0 0 0 0 0 0 -5 5 0 0. 9.
 15 1 1 2 0 0 -0.762887 4.4458 0.320078 4.85873 1.7768 0. -1
 -15 1 1 2 0 0 0.762887 -4.4458 -0.578745 4.8826 1.7768 0. 1
</event>
<event>
 4 80 1 -1 -1 -1
 11 -1 0 0 0 0 0 0 5 5 0 0. 9.
 -11 -1 0 0 0 0 0 0 -5 5 0 0. 9.
 15 1 1 2 0 0 0.115989 -2.07739 4.18488 5 1.7768 0. 1
 -15 1 1 2 0 0 -0.115989 2.07739 -4.18488 5 1.7768 0. -1
</event>
<event>
 4 80 1 -1 -1 -1
 11 -1 0 0 0 0 0 0 4.99144 4.99144 0 0. 9.
 -11 -1 0 0 0 0 0 0 -5 5 0 0. 9.
 15 1 1 2 0 0 -2.98764 3.5271 0.653761 4.99516 1.7768 0. 1
 -15 1 1 2 0 0 2.98764 -3.5271 -0.662322 4.99628 1.7768 0. -1
</event>
<event>
 4 80 1 -1 -1 -1
 11 -1 0 0 0 0 0 0 5 5 0 0. 9.
 -11 -1 0 0 0 0 0 0 -4.99988 4.99988 0 0. 9.
 15 1 1 2 0 0 2.51753 2.46079 3.07386 4.99998 1.7768 0. -1
 -15 1 1 2 0 0 -2.51753 -2.46079 -3.07374 4.99991 1.7768 0. 1
</event>
<event>
 4 80 1 -1 -1 -1
 11 -1 0 0 0 0 0 0 5 5 0 0. 9.
 -11 -1 0 0 0 0 0 0 -4.61475 4.61475 0 0. 9.
 15 1 1 2 0 0 3.9546 -1.53144 1.58363 4.86311 1.7768 0. -1
 -15 1 1 2 0 0 -3.9546 1.53144 -1.19838 4.75164 1.7768 0. 1
</event>
<event>
 4 80 1 -1 -1 -1
 11 -1 0 0 0 0 0 0 5 5 0 0. 9.
 -11 -1 0 0 0 0 0 0 -5 5 0 0. 9.
 15 1 1 2 0 0 4.18348 -0.102932 2.0809 5 1.7768 0. -1
 -15 1 1 2 0 0 -4.18348 0.102932 -2.0809 5 1.7768 0. 1
</event>
<event>
 4 80 1 -1 -1 -1
 11 -1 0 0 0 0 0 0 5 5 0 0. 9.
 -11 -1 0 0 0 0 0 0 -5 5 0 0. 9.
 15 1 1 2 0 0 -1.96836 -3.43997 -2.47678 5 1.7768 0. -1
 -15 1 1 2 0 0 1.96836 3.43997 2.47678 5 1.7768 0. 1
</event>
<event>
 4 80 1 -1 -1 -1
 11 -1 0 0 0 0 0 0 4.60851 4.60851 0 0. 9.
 -11 -1 0 0 0 0 0 0 -5 5 0 0. 9.
 15 1 1 2 0 0 -3.87111 1.74505 1.16706 4.74873 1.7768 0. 1
 -15 1 1 2 0 0 3.87111 -1.74505 -1.55855 4.85978 1.7768 0. -1
</event>
<event>
 4 80 1 -1 -1 -1
 11 -1 0 0 0 0 0 0 5 5 0 0. 9.
 -11 -1 0 0 0 0 0 0 -5 5 0 0. 9.
 15 1 1 2 0 0 4.38195 1.40264 0.820574 5 1.7768 0. -1
 -15 1 1 2 0 0 -4.38195 -1.40264 -0.820574 5 1.7768 0. 1
</event>
<event>
 4 80 1 -1 -1 -1
 11 -1 0 0 0 0 0 0 5 5 0 0. 9.
 -11 -1 0 0 0 0 0 0 -4.99983 4.99983 0 0. 9.
 15 1 1 2 0 0 -1.43487 0.818306 4.37192 4.99999 1.7768 0. -1
 -15 1 1 2 0 0 1.43487 -0.818306 -4.37176 4.99984 1.7768 0. 1
</event>
<event>
 4 80 1 -1 -1 -1
 11 -1 0 0 0 0 0 0 5 5 0 0. 9.
 -11 -1 0 0 0 0 0 0 -4.99621 4.99621 0 0. 9.
 15 1 1 2 0 0 3.93143 1.94679 1.60726 4.99872 1.7768 0. 1
 -15 1 1 2 0 0 -3.93143 -1.94679 -1.60348 4.9975 1.7768 0. -1
</event>
<event>
 4 80 1 -1 -1 -1
 11 -1 0 0 0 0 0 0 4.99651 4.99651 0 0. 9.
 -11 -1 0 0 0 0 0 0 -5 5 0 0. 9.
 15 1 1 2 0 0 -1.74417 -2.25177 3.70126 4.99696 1.7768 0. 1
 -15 1 1 2 0 0 1.74417 2.25177 -3.70475 4.99955 1.7768 0. -1
</event>
<event>
 4 80 1 -1 -1 -1
 11 -1 0 0 0 0 0 0 5 5 0 0. 9.
 -11 -1 0 0 0 0 0 0 -3.48298 3.48298 0 0. 9.
 15 1 1 2 0 0 -2.59732 2.73913 0.850635 4.25796 1.7768 0. 1
 -15 1 1 2 0 0 2.59732 -2.73913 0.666389 4.22501 1.7768 0. -1
</event>
<event>
 4 80 1 -1 -1 -1
 11 -1 0 0 0 0 0 0 5 5 0 0. 9.
 -11 -1 0 0 0 0 0 0 -4.97299 4.97299 0 0. 9.
 15 1 1 2 0 0 0.10841 1.83444 -4.2679 4.9749 1.7768 0. 1
 -15 1 1 2 0 0 -0.10841 -1.83444 4.29491 4.99809 1.7768 0. -1
</event>
<event>
 4 80 1 -1 -1 -1
 11 -1 0 0 0 0 0 0 4.99605 4.99605 0 0. 9.
 -11 -1 0 0 0 0 0 0 -5 5 0 0. 9.
 15 1 1 2 0 0 -0.670438 3.86435 2.53571 4.99702 1.7768 0. 1
 -15 1 1 2 0 0 0.670438 -3.86435 -2.53966 4.99903 1.7768 0. -1
</event>
<event>
 4 80 1 -1 -1 -1
 11 -1 0 0 0 0 0 0 5 5 0 0. 9.
 -11 -1 0 0 0 0 0 0 -4.93303 4.93303 0 0. 9.
 15 1 1 2 0 0 2.9977 -2.61377 -2.35182 4.95043 1.7768 0. -1
 -15 1 1 2 0 0 -2.9977 2.61377 2.41879 4.9826 1.7768 0. 1
</event>
<event>
 4 80 1 -1 -1 -1
 11 -1 0 0 0 0 0 0 4.95198 4.95198 0 0. 9.
 -11 -1 0 0 0 0 0 0 -5 5 0 0. 9.
 15 1 1 2 0 0 -4.18878 1.86042 0.747433 4.97227 1.7768 0. 1
 -15 1 1 2 0 0 4.18878 -1.86042 -0.795455 4.97971 1.7768 0. -1
</event>
<event>
 4 80 1 -1 -1 -1
 11 -1 0 0 0 0 0 0 5 5 0 0. 9.
 -11 -1 0 0 0 0 0 0 -3.15618 3.15618 0 0. 9.
 15 1 1 2 0 0 -3.44218 0.249398 0.0554507 3.88222 1.7768 0. -1
 -15 1 1 2 0 0 3.44218 -0.249398 1.78837 4.27397 1.7768 0. 1
</event>
<event>
 4 80 1 -1 -1 -1
 11 -1 0 0 0 0 0 0 4.99132 4.99132 0 0. 9.
 -11 -1 0 0 0 0 0 0 -5 5 0 0. 9.
 15 1 1 2 0 0 1.35469 -3.2261 3.08694 4.99298 1.7768 0. 1
 -15 1 1 2 0 0 -1.35469 3.2261 -3.09562 4.99835 1.7768 0. -1
</event>
<event>
 4 80 1 -1 -1 -1
 11 -1 0 0 0 0 0 0 4.99997 4.99997 0 0. 9.
 -11 -1 0 0 0 0 0 0 -5 5 0 0. 9.
 15 1 1 2 0 0 -1.65517 4.36364 -0.247343 4.99999 1.7768 0. -1
 -15 1 1 2 0 0 1.65517 -4.36364 0.247318 4.99999 1.7768 0. 1
</event>
<event>
 4 80 1 -1 -1 -1
 11 -1 0 0 0 0 0 0 5 5 0 0. 9.
 -11 -1 0 0 0 0 0 0 -4.30502 4.30502 0 0. 9.
 15 1 1 2 0 0 -1.03106 0.245904 -3.81671 4.34149 1.7768 0. -1
 -15 1 1 2 0 0 1.03106 -0.245904 4.51169 4.96353 1.7768 0. 1
</event>
<event>
 4 80 1 -1 -1 -1
 11 -1 0 0 0 0 0 0 5 5 0 0. 9.
 -11 -1 0 0 0 0 0 0 -5 5 0 0. 9.
 15 1 1 2 0 0 1.41599 -4.43919 -0.361713 5 1.7768 0. 1
 -15 1 1 2 0 0 -1.41599 4.43919 0.361713 5 1.7768 0. -1
</event>
<event>
 4 80 1 -1 -1 -1
 11 -1 0 0 0 0 0 0 4.99582 4.99582 0 0. 9.
 -11 -1 0 0 0 0 0 0 -5 5 0 0. 9.
 15 1 1 2 0 0 -0.949617 -3.67627 2.71905 4.99677 1.7768 0. 1
 -15 1 1 2 0 0 0.949617 3.67627 -2.72323 4.99905 1.7768 0. -1
</event>
<event>
 4 80 1 -1 -1 -1
 11 -1 0 0 0 0 0 0 5 5 0 0. 9.
 -11 -1 0 0 0 0 0 0 -5 5 0 0. 9.
 15 1 1 2 0 0 -1.58944 -0.348489 4.38115 5 1.7768 0. 1
 -15 1 1 2 0 0 1.58944 0.348489 -4.38115 5 1.7768 0. -1
</event>
<event>
 4 80 1 -1 -1 -1
 11 -1 0 0 0 0 0 0 3.81289 3.81289 0 0. 9.
 -11 -1 0 0 0 0 0 0 -5 5 0 0. 9.
 15 1 1 2 0 0 -0.713786 -1.11366 -4.39074 4.91793 1.7768 0. 1
 -15 1 1 2 0 0 0.713786 1.11366 3.20363 3.89496 1.7768 0. -1
</event>
<event>
 4 80 1 -1 -1 -1
 11 -1 0 0 0 0 0 0 5 5 0 0. 9.
 -11 -1 0 0 0 0 0 0 -5 5 0 0. 9.
 15 1 1 2 0 0 -3.24103 -3.28398 -0.743924 5 1.7768 0. -1
 -15 1 1 2 0 0 3.24103 3.28398 0.743924 5 1.7768 0. 1
</event>
<event>
 4 80 1 -1 -1 -1
 11 -1 0 0 0 0 0 0 5 5 0 0. 9.
 -11 -1 0 0 0 0 0 0 -5 5 0 0. 9.
 15 1 1 2 0 0 -0.993258 -2.43431 3.86391 5 1.7768 0. -1
 -15 1 1 2 0 0 0.993258 2.43431 -3.86391 5 1.7768 0. 1
</event>
<event>
 4 80 1 -1 -1 -1
 11 -1 0 0 0 0 0 0 4.99998 4.99998 0 0. 9.
 -11 -1 0 0 0 0 0 0 -5 5 0 0. 9.
 15 1 1 2 0 0 -0.821111 -4.19327 -1.89327 4.99999 1.7768 0. 1
 -15 1 1 2 0 0 0.821111 4.19327 1.89326 4.99999 1.7768 0. -1
</event>
<event>
 4 80 1 -1 -1 -1
 11 -1 0 0 0 0 0 0 5 5 0 0. 9.
 -11 -1 0 0 0 0 0 0 -5 5 0 0. 9.
 15 1 1 2 0 0 4.05881 0.687824 2.21252 5 1.7768 0. -1
 -15 1 1 2 0 0 -4.05881 -0.687824 -2.21252 5 1.7768 0. 1
</event>
<event>
 4 80 1 -1 -1 -1
 11 -1 0 0 0 0 0 0 5 5 0 0. 9.
 -11 -1 0 0 0 0 0 0 -5 5 0 0. 9.
 15 1 1 2 0 0 -2.68728 1.45572 3.53576 5 1.7768 0. 1
 -15 1 1 2 0 0 2.68728 -1.45572 -3.53577 5 1.7768 0. -1
</event>
<event>
 4 80 1 -1 -1 -1
 11 -1 0 0 0 0 0 0 4.32143 4.32143 0 0. 9.
 -11 -1 0 0 0 0 0 0 -4.99999 4.99999 0 0. 9.
 15 1 1 2 0 0 -1.46234 4.03035 -0.599293 4.67964 1.7768 0. 1
 -15 1 1 2 0 0 1.46234 -4.03035 -0.079276 4.64178 1.7768 0. -1
</event>
<event>
 4 80 1 -1 -1 -1
 11 -1 0 0 0 0 0 0 5 5 0 0. 9.
 -11 -1 0 0 0 0 0 0 -5 5 0 0. 9.
 15 1 1 2 0 0 -1.57024 -2.28537 3.76214 5 1.7768 0. 1
 -15 1 1 2 0 0 1.57024 2.28537 -3.76214 5 1.7768 0. -1
</event>
<event>
 4 80 1 -1 -1 -1
 11 -1 0 0 0 0 0 0 5 5 0 0. 9.
 -11 -1 0 0 0 0 0 0 -5 5 0 0. 9.
 15 1 1 2 0 0 2.6631 0.370667 -3.82267 5 1.7768 0. 1
 -15 1 1 2 0 0 -2.6631 -0.370667 3.82267 5 1.7768 0. -1
</event>
<event>
 4 80 1 -1 -1 -1
 11 -1 0 0 0 0 0 0 2.49663 2.49663 0 0. 9.
 -11 -1 0 0 0 0 0 0 -4.99586 4.99586 0 0. 9.
 15 1 1 2 0 0 1.90598 -1.34386 0.838842 3.04961 1.7768 0. -1
 -15 1 1 2 0 0 -1.90598 1.34386 -3.33808 4.44288 1.7768 0. 1
</event>
<event>
 4 80 1 -1 -1 -1
 11 -1 0 0 0 0 0 0 5 5 0 0. 9.
 -11 -1 0 0 0 0 0 0 -5 5 0 0. 9.
 15 1 1 2 0 0 -0.621914 2.46478 3.92178 5 1.7768 0. -1
 -15 1 1 2 0 0 0.621914 -2.46478 -3.92178 5 1.7768 0. 1
</event>
<event>
 4 80 1 -1 -1 -1
 11 -1 0 0 0 0 0 0 4.99999 4.99999 0 0. 9.
 -11 -1 0 0 0 0 0 0 -3.09257 3.09257 0 0. 9.
 15 1 1 2 0 0 -1.98007 -2.30125 2.76213 4.47253 1.7768 0. 1
 -15 1 1 2 0 0 1.98007 2.30125 -0.854713 3.62004 1.7768 0. -1
</event>
<event>
 4 80 1 -1 -1 -1
 11 -1 0 0 0 0 0 0 5 5 0 0. 9.
 -11 -1 0 0 0 0 0 0 -5 5 0 0. 9.
 15 1 1 2 0 0 -1.62035 1.14836 4.2306 5 1.7768 0. 1
 -15 1 1 2 0 0 1.62035 -1.14836 -4.2306 5 1.7768 0. -1
</event>
<event>
 4 80 1 -1 -1 -1
 11 -1 0 0 0 0 0 0 4.97669 4.97669 0 0. 9.
 -11 -1 0 0 0 0 0 0 -5 5 0 0. 9.
 15 1 1 2 0 0 -4.45589 0.121944 -1.37397 4.99153 1.7768 0. -1
 -15 1 1 2 0 0 4.45589 -0.121944 1.35065 4.98516 1.7768 0. 1
</event>
<event>
 4 80 1 -1 -1 -1
 11 -1 0 0 0 0 0 0 5 5 0 0. 9.
 -11 -1 0 0 0 0 0 0 -5 5 0 0. 9.
 15 1 1 2 0 0 -4.55854 1.01884 -0.154839 5 1.7768 0. -1
 -15 1 1 2 0 0 4.55854 -1.01884 0.154841 5 1.7768 0. 1
</event>
<event>
 4 80 1 -1 -1 -1
 11 -1 0 0 0 0 0 0 5 5 0 0. 9.
 -11 -1 0 0 0 0 0 0 -5 5 0 0. 9.
 15 1 1 2 0 0 -4.00936 -2.38659 -0.267392 5 1.7768 0. 1
 -15 1 1 2 0 0 4.00936 2.38659 0.267392 5 1.7768 0. -1
</event>
<event>
 4 80 1 -1 -1 -1
 11 -1 0 0 0 0 0 0 4.99999 4.99999 0 0. 9.
 -11 -1 0 0 0 0 0 0 -3.9765 3.9765 0 0. 9.
 15 1 1 2 0 0 0.283387 4.0536 0.0474726 4.43531 1.7768 0. 1
 -15 1 1 2 0 0 -0.283387 -4.0536 0.976014 4.54118 1.7768 0. -1
</event>
<event>
 4 80 1 -1 -1 -1
 11 -1 0 0 0 0 0 0 5 5 0 0. 9.
 -11 -1 0 0 0 0 0 0 -5 5 0 0. 9.
 15 1 1 2 0 0 3.74336 1.23657 -2.51006 5 1.7768 0. 1
 -15 1 1 2 0 0 -3.74336 -1.23657 2.51006 5 1.7768 0. -1
</event>
<event>
 4 80 1 -1 -1 -1
 11 -1 0 0 0 0 0 0 5 5 0 0. 9.
 -11 -1 0 0 0 0 0 0 -5 5 0 0. 9.
 15 1 1 2 0 0 3.0301 -2.35676 -2.66579 5 1.7768 0. -1
 -15 1 1 2 0 0 -3.0301 2.35676 2.66579 5 1.7768 0. 1
</event>
<event>
 4 80 1 -1 -1 -1
 11 -1 0 0 0 0 0 0 4.99997 4.99997 0 0. 9.
 -11 -1 0 0 0 0 0 0 -5 5 0 0. 9.
 15 1 1 2 0 0 -1.49602 -1.23068 -4.25319 5 1.7768 0. 1
 -15 1 1 2 0 0 1.49602 1.23068 4.25316 4.99997 1.7768 0. -1
</event>
<event>
 4 80 1 -1 -1 -1
 11 -1 0 0 0 0 0 0 5 5 0 0. 9.
 -11 -1 0 0 0 0 0 0 -5 5 0 0. 9.
 15 1 1 2 0 0 -3.67486 -0.573559 -2.82996 5 1.7768 0. -1
 -15 1 1 2 0 0 3.67486 0.573559 2.82996 5 1.7768 0. 1
</event>
<event>
 4 80 1 -1 -1 -1
 11 -1 0 0 0 0 0 0 5 5 0 0. 9.
 -11 -1 0 0 0 0 0 0 -4.99732 4.99732 0 0. 9.
 15 1 1 2 0 0 0.296773 -3.91641 2.53165 4.99934 1.7768 0. 1
 -15 1 1 2 0 0 -0.296773 3.91641 -2.52897 4.99798 1.7768 0. -1
</event>
<event>
 4 80 1 -1 -1 -1
 11 -1 0 0 0 0 0 0 4.99897 4.99897 0 0. 9.
 -11 -1 0 0 0 0 0 0 -5 5 0 0. 9.
 15 1 1 2 0 0 -1.38913 1.91168 -4.032 4.9999 1.7768 0. -1
 -15 1 1 2 0 0 1.38913 -1.91168 4.03098 4.99907 1.7768 0. 1
</event>
<event>
 4 80 1 -1 -1 -1
 11 -1 0 0 0 0 0 0 5 5 0 0. 9.
 -11 -1 0 0 0 0 0 0 -3.86353 3.86353 0 0. 9.
 15 1 1 2 0 0 1.37463 2.42387 -2.35331 4.05716 1.7768 0. -1
 -15 1 1 2 0 0 -1.37463 -2.42387 3.48979 4.80636 1.7768 0. 1
</event>
<event>
 4 80 1 -1 -1 -1
 11 -1 0 0 0 0 0 0 5 5 0 0. 9.
 -11 -1 0 0 0 0 0 0 -5 5 0 0. 9.
 15 1 1 2 0 0 3.13131 3.13497 1.48632 5 1.7768 0. -1
 -15 1 1 2 0 0 -3.13131 -3.13497 -1.48632 5 1.7768 0. 1
</event>
<event>
 4 80 1 -1 -1 -1
 11 -1 0 0 0 0 0 0 5 5 0 0. 9.
 -11 -1 0 0 0 0 0 0 -5 5 0 0. 9.
 15 1 1 2 0 0 0.605866 1.60801 4.3462 5 1.7768 0. -1
 -15 1 1 2 0 0 -0.605866 -1.60801 -4.3462 5 1.7768 0. 1
</event>
<event>
 4 80 1 -1 -1 -1
 11 -1 0 0 0 0 0 0 5 5 0 0. 9.
 -11 -1 0 0 0 0 0 0 -3.84342 3.84342 0 0. 9.
 15 1 1 2 0 0 -2.95984 -2.59544 1.33476 4.52065 1.7768 0. -1
 -15 1 1 2 0 0 2.95984 2.59544 -0.178186 4.32278 1.7768 0. 1
</event>
<event>
 4 80 1 -1 -1 -1
 11 -1 0 0 0 0 0 0 3.20652 3.20652 0 0. 9.
 -11 -1 0 0 0 0 0 0 -4.99734 4.99734 0 0. 9.
 15 1 1 2 0 0 -1.68494 -2.40405 1.21657 3.64091 1.7768 0. 1
 -15 1 1 2 0 0 1.68494 2.40405 -3.00739 4.56296 1.7768 0. -1
</event>
<event>
 4 80 1 -1 -1 -1
 11 -1 0 0 0 0 0 0 5 5 0 0. 9.
 -11 -1 0 0 0 0 0 0 -4.73748 4.73748 0 0. 9.
 15 1 1 2 0 0 -1.9145 -3.11526 2.80796 4.9409 1.7768 0. 1
 -15 1 1 2 0 0 1.9145 3.11526 -2.54545 4.79658 1.7768 0. -1
</event>
<event>
 4 80 1 -1 -1 -1
 11 -1 0 0 0 0 0 0 4.91793 4.91793 0 0. 9.
 -11 -1 0 0 0 0 0 0 -5 5 0 0. 9.
 15 1 1 2 0 0 2.27046 3.6919 -1.668 4.97243 1.7768 0. -1
 -15 1 1 2 0 0 -2.27046 -3.6919 1.58593 4.9455 1.7768 0. 1
</event>
<event>
 4 80 1 -1 -1 -1
 11 -1 0 0 0 0 0 0 3.59648 3.59648 0 0. 9.
 -11 -1 0 0 0 0 0 0 -5 5 0 0. 9.
 15 1 1 2 0 0 2.15509 -3.16849 -1.08232 4.36037 1.7768 0. 1
 -15 1 1 2 0 0 -2.15509 3.16849 -0.321196 4.23611 1.7768 0. -1
</event>
<event>
 4 80 1 -1 -1 -1
 11 -1 0 0 0 0 0 0 2.08831 2.08831 0 0. 9.
 -11 -1 0 0 0 0 0 0 -5 5 0 0. 9.
 15 1 1 2 0 0 -0.631598 -1.43015 -3.86871 4.5353 1.7768 0. -1
 -15 1 1 2 0 0 0.631598 1.43015 0.957024 2.55301 1.7768 0. 1
</event>
<event>
 4 80 1 -1 -1 -1
 11 -1 0 0 0 0 0 0 5 5 0 0. 9.
 -11 -1 0 0 0 0 0 0 -5 5 0 0. 9.
 15 1 1 2 0 0 4.49192 -0.89636 0.928131 5 1.7768 0. 1
 -15 1 1 2 0 0 -4.49192 0.89636 -0.928129 5 1.7768 0. -1
</event>
<event>
 4 80 1 -1 -1 -1
 11 -1 0 0 0 0 0 0 2.63302 2.63302 0 0. 9.
 -11 -1 0 0 0 0 0 0 -4.95184 4.95184 0 0. 9.
 15 1 1 2 0 0 1.26106 -2.20797 0.781535 3.19905 1.7768 0. 1
 -15 1 1 2 0 0 -1.26106 2.20797 -3.10035 4.38581 1.7768 0. -1
</event>
<event>
 4 80 1 -1 -1 -1
 11 -1 0 0 0 0 0 0 4.99795 4.99795 0 0. 9.
 -11 -1 0 0 0 0 0 0 -5 5 0 0. 9.
 15 1 1 2 0 0 -4.28859 -1.61011 -0.921647 4.99916 1.7768 0. -1
 -15 1 1 2 0 0 4.28859 1.61011 0.919595 4.99879 1.7768 0. 1
</event>
<event>
 4 80 1 -1 -1 -1
 11 -1 0 0 0 0 0 0 2.50953 2.50953 0 0. 9.
 -11 -1 0 0 0 0 0 0 -3.96925 3.96925 0 0. 9.
 15 1 1 2 0 0 -1.51117 -1.62532 -2.13641 3.5563 1.7768 0. -1
 -15 1 1 2 0 0 1.51117 1.62532 0.67669 2.92249 1.7768 0. 1
</event>
<event>
 4 80 1 -1 -1 -1
 11 -1 0 0 0 0 0 0 5 5 0 0. 9.
 -11 -1 0 0 0 0 0 0 -5 5 0 0. 9.
 15 1 1 2 0 0 3.48453 -0.556859 3.06435 5 1.7768 0. 1
 -15 1 1 2 0 0 -3.48453 0.556859 -3.06435 5 1.7768 0. -1
</event>
<event>
 4 80 1 -1 -1 -1
 11 -1 0 0 0 0 0 0 4.99994 4.99994 0 0. 9.
 -11 -1 0 0 0 0 0 0 -5 5 0 0. 9.
 15 1 1 2 0 0 3.49514 -1.71915 2.58269 4.99995 1.7768 0. 1
 -15 1 1 2 0 0 -3.49514 1.71915 -2.58276 4.99998 1.7768 0. -1
</event>
<event>
 4 80 1 -1 -1 -1
 11 -1 0 0 0 0 0 0 5 5 0 0. 9.
 -11 -1 0 0 0 0 0 0 -5 5 0 0. 9.
 15 1 1 2 0 0 4.06351 0.758352 2.1806 5 1.7768 0. -1
 -15 1 1 2 0 0 -4.06351 -0.758352 -2.1806 5 1.7768 0. 1
</event>
<event>
 4 80 1 -1 -1 -1
 11 -1 0 0 0 0 0 0 4.96171 4.96171 0 0. 9.
 -11 -1 0 0 0 0 0 0 -4.98082 4.98082 0 0. 9.
 15 1 1 2 0 0 -2.96059 -1.2316 3.34809 4.96481 1.7768 0. 1
 -15 1 1 2 0 0 2.96059 1.2316 -3.3672 4.97772 1.7768 0. -1
</event>
<event>
 4 80 1 -1 -1 -1
 11 -1 0 0 0 0 0 0 1.33905 1.33905 0 0. 9.
 -11 -1 0 0 0 0 0 0 -5 5 0 0. 9.
 15 1 1 2 0 0 -0.75541 -1.03726 -0.146053 2.19673 1.7768 0. -1
 -15 1 1 2 0 0 0.75541 1.03726 -3.5149 4.14232 1.7768 0. 1
</event>
<event>
 4 80 1 -1 -1 -1
 11 -1 0 0 0 0 0 0 5 5 0 0. 9.
 -11 -1 0 0 0 0 0 0 -5 5 0 0. 9.
 15 1 1 2 0 0 -3.25194 -0.120092 -3.35451 5 1.7768 0. 1
 -15 1 1 2 0 0 3.25194 0.120092 3.35451 5 1.7768 0. -1
</event>
<event>
 4 80 1 -1 -1 -1
 11 -1 0 0 0 0 0 0 4.96984 4.96984 0 0. 9.
 -11 -1 0 0 0 0 0 0 -4.99966 4.99966 0 0. 9.
 15 1 1 2 0 0 -4.2526 0.180602 -1.90505 4.99041 1.7768 0. -1
 -15 1 1 2 0 0 4.2526 -0.180602 1.87523 4.9791 1.7768 0. 1
</event>
<event>
 4 80 1 -1 -1 -1
 11 -1 0 0 0 0 0 0 5 5 0 0. 9.
 -11 -1 0 0 0 0 0 0 -5 5 0 0. 9.
 15 1 1 2 0 0 -0.581039 1.42901 -4.41164 5 1.7768 0. 1
 -15 1 1 2 0 0 0.581039 -1.42901 4.41164 5 1.7768 0. -1
</event>
<event>
 4 80 1 -1 -1 -1
 11 -1 0 0 0 0 0 0 5 5 0 0. 9.
 -11 -1 0 0 0 0 0 0 -5 5 0 0. 9.
 15 1 1 2 0 0 0.308321 3.37576 -3.21737 5 1.7768 0. -1
 -15 1 1 2 0 0 -0.308321 -3.37576 3.21737 5 1.7768 0. 1
</event>
<event>
 4 80 1 -1 -1 -1
 11 -1 0 0 0 0 0 0 4.99927 4.99927 0 0. 9.
 -11 -1 0 0 0 0 0 0 -4.99977 4.99977 0 0. 9.
 15 1 1 2 0 0 2.00198 1.08048 -4.08218 4.99972 1.7768 0. 1
 -15 1 1 2 0 0 -2.00198 -1.08048 4.08167 4.99931 1.7768 0. -1
</event>
<event>
 4 80 1 -1 -1 -1
 11 -1 0 0 0 0 0 0 5 5 0 0. 9.
 -11 -1 0 0 0 0 0 0 -5 5 0 0. 9.
 15 1 1 2 0 0 2.69666 0.995666 3.68495 5 1.7768 0. 1
 -15 1 1 2 0 0 -2.69666 -0.995666 -3.68496 5 1.7768 0. -1
</event>
<event>
 4 80 1 -1 -1 -1
 11 -1 0 0 0 0 0 0 5 5 0 0. 9.
 -11 -1 0 0 0 0 0 0 -4.99973 4.99973 0 0. 9.
 15 1 1 2 0 0 3.18257 3.18432 1.25402 4.9999 1.7768 0. 1
 -15 1 1 2 0 0 -3.18257 -3.18432 -1.25375 4.99983 1.7768 0. -1
</event>
<event>
 4 80 1 -1 -1 -1
 11 -1 0 0 0 0 0 0 3.24122 3.24122 0 0. 9.
 -11 -1 0 0 0 0 0 0 -4.85188 4.85188 0 0. 9.
 15 1 1 2 0 0 -0.154399 2.62237 1.62394 3.56308 1.7768 0. 1
 -15 1 1 2 0 0 0.154399 -2.62237 -3.23461 4.53002 1.7768 0. -1
</event>
<event>
 4 80 1 -1 -1 -1
 11 -1 0 0 0 0 0 0 4.98403 4.98403 0 0. 9.
 -11 -1 0 0 0 0 0 0 -5 5 0 0. 9.
 15 1 1 2 0 0 -1.03853 2.54453 -3.7775 4.99804 1.7768 0. 1
 -15 1 1 2 0 0 1.03853 -2.54453 3.76153 4.98598 1.7768 0. -1
</event>
<event>
 4 80 1 -1 -1 -1
 11 -1 0 0 0 0 0 0 4.9837 4.9837 0 0. 9.
 -11 -1 0 0 0 0 0 0 -5 5 0 0. 9.
 15 1 1 2 0 0 -2.56383 1.94487 -3.38529 4.99736 1.7768 0. -1
 -15 1 1 2 0 0 2.56383 -1.94487 3.36898 4.98633 1.7768 0. 1
</event>
<event>
 4 80 1 -1 -1 -1
 11 -1 0 0 0 0 0 0 5 5 0 0. 9.
 -11 -1 0 0 0 0 0 0 -5 5 0 0. 9.
 15 1 1 2 0 0 3.2454 -0.87201 -3.24796 5 1.7768 0. -1
 -15 1 1 2 0 0 -3.2454 0.87201 3.24796 5 1.7768 0. 1
</event>
<event>
 4 80 1 -1 -1 -1
 11 -1 0 0 0 0 0 0 4.99093 4.99093 0 0. 9.
 -11 -1 0 0 0 0 0 0 -5 5 0 0. 9.
 15 1 1 2 0 0 -4.04796 2.23814 -0.638292 4.99604 1.7768 0. 1
 -15 1 1 2 0 0 4.04796 -2.23814 0.629222 4.99489 1.7768 0. -1
</event>
<event>
 4 80 1 -1 -1 -1
 11 -1 0 0 0 0 0 0 3.68951 3.68951 0 0. 9.
 -11 -1 0 0 0 0 0 0 -4.99554 4.99554 0 0. 9.
 15 1 1 2 0 0 -3.30358 -0.337302 1.43126 4.0291 1.7768 0. 1
 -15 1 1 2 0 0 3.30358 0.337302 -2.73729 4.65595 1.7768 0. -1
</event>
<event>
 4 80 1 -1 -1 -1
 11 -1 0 0 0 0 0 0 4.97157 4.97157 0 0. 9.
 -11 -1 0 0 0 0 0 0 -5 5 0 0. 9.
 15 1 1 2 0 0 -3.07111 -2.686 2.23386 4.97937 1.7768 0. 1
 -15 1 1 2 0 0 3.07111 2.686 -2.26229 4.99219 1.7768 0. -1
</event>
<event>
 4 80 1 -1 -1 -1
 11 -1 0 0 0 0 0 0 4.99998 4.99998 0 0. 9.
 -11 -1 0 0 0 0 0 0 -5 5 0 0. 9.
 15 1 1 2 0 0 -1.60242 4.03706 1.72526 4.99999 1.7768 0. -1
 -15 1 1 2 0 0 1.60242 -4.03706 -1.72528 4.99999 1.7768 0. 1
</event>
<event>
 4 80 1 -1 -1 -1
 11 -1 0 0 0 0 0 0 5 5 0 0. 9.
 -11 -1 0 0 0 0 0 0 -5 5 0 0. 9.
 15 1 1 2 0 0 4.2881 -0.698871 -1.72221 5 1.7768 0. -1
 -15 1 1 2 0 0 -4.2881 0.698871 1.72221 5 1.7768 0. 1
</event>
<event>
 4 80 1 -1 -1 -1
 11 -1 0 0 0 0 0 0 5 5 0 0. 9.
 -11 -1 0 0 0 0 0 0 -5 5 0 0. 9.
 15 1 1 2 0 0 -1.03969 -3.4005 -3.03281 5 1.7768 0. -1
 -15 1 1 2 0 0 1.03969 3.4005 3.03281 5 1.7768 0. 1
</event>
<event>
 4 80 1 -1 -1 -1
 11 -1 0 0 0 0 0 0 5 5 0 0. 9.
 -11 -1 0 0 0 0 0 0 -5 5 0 0. 9.
 15 1 1 2 0 0 0.329852 -1.05636 4.54066 5 1.7768 0. 1
 -15 1 1 2 0 0 -0.329852 1.05636 -4.54066 5 1.7768 0. -1
</event>
<event>
 4 80 1 -1 -1 -1
 11 -1 0 0 0 0 0 0 5 5 0 0. 9.
 -11 -1 0 0 0 0 0 0 -5 5 0 0. 9.
 15 1 1 2 0 0 1.70021 -2.07724 -3.82578 5 1.7768 0. -1
 -15 1 1 2 0 0 -1.70021 2.07724 3.82578 5 1.7768 0. 1
</event>
<event>
 4 80 1 -1 -1 -1
 11 -1 0 0 0 0 0 0 5 5 0 0. 9.
 -11 -1 0 0 0 0 0 0 -5 5 0 0. 9.
 15 1 1 2 0 0 3.08999 -2.96763 -1.86745 5 1.7768 0. 1
 -15 1 1 2 0 0 -3.08999 2.96763 1.86745 5 1.7768 0. -1
</event>
<event>
 4 80 1 -1 -1 -1
 11 -1 0 0 0 0 0 0 4.94694 4.94694 0 0. 9.
 -11 -1 0 0 0 0 0 0 -4.96173 4.96173 0 0. 9.
 15 1 1 2 0 0 -2.41719 2.80987 2.75838 4.9502 1.7768 0. -1
 -15 1 1 2 0 0 2.41719 -2.80987 -2.77317 4.95846 1.7768 0. 1
</event>
<event>
 4 80 1 -1 -1 -1
 11 -1 0 0 0 0 0 0 4.99697 4.99697 0 0. 9.
 -11 -1 0 0 0 0 0 0 -5 5 0 0. 9.
 15 1 1 2 0 0 2.42087 -1.54118 3.68512 4.99737 1.7768 0. 1
 -15 1 1 2 0 0 -2.42087 1.54118 -3.68815 4.9996 1.7768 0. -1
</event>
<event>
 4 80 1 -1 -1 -1
 11 -1 0 0 0 0 0 0 5 5 0 0. 9.
 -11 -1 0 0 0 0 0 0 -5 5 0 0. 9.
 15 1 1 2 0 0 2.79767 1.05145 3.59301 5 1.7768 0. -1
 -15 1 1 2 0 0 -2.79767 -1.05145 -3.59301 5 1.7768 0. 1
</event>
<event>
 4 80 1 -1 -1 -1
 11 -1 0 0 0 0 0 0 4.99999 4.99999 0 0. 9.
 -11 -1 0 0 0 0 0 0 -5 5 0 0. 9.
 15 1 1 2 0 0 3.15809 3.18228 1.31976 5 1.7768 0. -1
 -15 1 1 2 0 0 -3.15809 -3.18228 -1.31977 5 1.7768 0. 1
</event>
<event>
 4 80 1 -1 -1 -1
 11 -1 0 0 0 0 0 0 5 5 0 0. 9.
 -11 -1 0 0 0 0 0 0 -5 5 0 0. 9.
 15 1 1 2 0 0 -2.81484 3.63895 0.82278 5 1.7768 0. 1
 -15 1 1 2 0 0 2.81484 -3.63895 -0.82278 5 1.7768 0. -1
</event>
<event>
 4 80 1 -1 -1 -1
 11 -1 0 0 0 0 0 0 3.54999 3.54999 0 0. 9.
 -11 -1 0 0 0 0 0 0 -4.99848 4.99848 0 0. 9.
 15 1 1 2 0 0 -0.211759 1.75209 -4.161 4.85657 1.7768 0. -1
 -15 1 1 2 0 0 0.211759 -1.75209 2.71251 3.6919 1.7768 0. 1
</event>
<event>
 4 80 1 -1 -1 -1
 11 -1 0 0 0 0 0 0 5 5 0 0. 9.
 -11 -1 0 0 0 0 0 0 -5 5 0 0. 9.
 15 1 1 2 0 0 -3.89147 -1.51107 -2.10129 5 1.7768 0. 1
 -15 1 1 2 0 0 3.89147 1.51107 2.10129 5 1.7768 0. -1
</event>
<event>
 4 80 1 -1 -1 -1
 11 -1 0 0 0 0 0 0 4.99973 4.99973 0 0. 9.
 -11 -1 0 0 0 0 0 0 -5 5 0 0. 9.
 15 1 1 2 0 0 1.47351 3.1797 -3.09193 4.99995 1.7768 0. -1
 -15 1 1 2 0 0 -1.47351 -3.1797 3.09167 4.99978 1.7768 0. 1
</event>
<event>
 4 80 1 -1 -1 -1
 11 -1 0 0 0 0 0 0 5 5 0 0. 9.
 -11 -1 0 0 0 0 0 0 -5 5 0 0. 9.
 15 1 1 2 0 0 -2.44998 3.97287 -0.23702 5 1.7768 0. -1
 -15 1 1 2 0 0 2.44998 -3.97287 0.237021 5 1.7768 0. 1
</event>
<event>
 4 80 1 -1 -1 -1
 11 -1 0 0 0 0 0 0 2.34023 2.34023 0 0. 9.
 -11 -1 0 0 0 0 0 0 -4.80926 4.80926 0 0. 9.
 15 1 1 2 0 0 -1.55231 1.55072 -3.16509 4.24146 1.7768 0. 1
 -15 1 1 2 0 0 1.55231 -1.55072 0.696063 2.90803 1.7768 0. -1
</event>
<event>
 4 80 1 -1 -1 -1
 11 -1 0 0 0 0 0 0 4.96535 4.96535 0 0. 9.
 -11 -1 0 0 0 0 0 0 -5 5 0 0. 9.
 15 1 1 2 0 0 4.49001 1.22582 0.061512 4.9824 1.7768 0. 1
 -15 1 1 2 0 0 -4.49001 -1.22582 -0.0961591 4.98295 1.7768 0. -1
</event>
<event>
 4 80 1 -1 -1 -1
 11 -1 0 0 0 0 0 0 5 5 0 0. 9.
 -11 -1 0 0 0 0 0 0 -5 5 0 0. 9.
 15 1 1 2 0 0 0.403168 4.602 0.708064 5 1.7768 0. 1
 -15 1 1 2 0 0 -0.403168 -4.602 -0.708064 5 1.7768 0. -1
</event>
<event>
 4 80 1 -1 -1 -1
 11 -1 0 0 0 0 0 0 4.9957 4.9957 0 0. 9.
 -11 -1 0 0 0 0 0 0 -2.51584 2.51584 0 0. 9.
 15 1 1 2 0 0 0.336333 -0.210723 4.46251 4.81967 1.7768 0. 1
 -15 1 1 2 0 0 -0.336333 0.210723 -1.98265 2.69186 1.7768 0. -1
</event>
<event>
 4 80 1 -1 -1 -1
 11 -1 0 0 0 0 0 0 5 5 0 0. 9.
 -11 -1 0 0 0 0 0 0 -4.88269 4.88269 0 0. 9.
 15 1 1 2 0 0 -2.11246 0.343481 -4.02517 4.89287 1.7768 0. -1
 -15 1 1 2 0 0 2.11246 -0.343481 4.14248 4.98982 1.7768 0. 1
</event>
<event>
 4 80 1 -1 -1 -1
 11 -1 0 0 0 0 0 0 0.653671 0.653671 0 0. 9.
 -11 -1 0 0 0 0 0 0 -4.99999 4.99999 0 0. 9.
 15 1 1 2 0 0 -0.0390966 0.0879813 -2.67096 3.20952 1.7768 0. -1
 -15 1 1 2 0 0 0.0390966 -0.0879813 -1.67537 2.44415 1.7768 0. 1
</event>
<event>
 4 80 1 -1 -1 -1
 11 -1 0 0 0 0 0 0 4.90372 4.90372 0 0. 9.
 -11 -1 0 0 0 0 0 0 -5 5 0 0. 9.
 15 1 1 2 0 0 4.38264 1.35581 -0.609499 4.95732 1.7768 0. 1
 -15 1 1 2 0 0 -4.38264 -1.35581 0.513217 4.9464 1.7768 0. -1
</event>
<event>
 4 80 1 -1 -1 -1
 11 -1 0 0 0 0 0 0 5 5 0 0. 9.
 -11 -1 0 0 0 0 0 0 -4.8581 4.8581 0 0. 9.
 15 1 1 2 0 0 0.188656 0.0968397 -4.52167 4.86294 1.7768 0. 1
 -15 1 1 2 0 0 -0.188656 -0.0968397 4.66357 4.99516 1.7768 0. -1
</event>
<event>
 4 80 1 -1 -1 -1
 11 -1 0 0 0 0 0 0 5 5 0 0. 9.
 -11 -1 0 0 0 0 0 0 -5 5 0 0. 9.
 15 1 1 2 0 0 -1.29606 4.00379 -2.03277 5 1.7768 0. 1
 -15 1 1 2 0 0 1.29606 -4.00379 2.03277 5 1.7768 0. -1
</event>
<event>
 4 80 1 -1 -1 -1
 11 -1 0 0 0 0 0 0 4.92394 4.92394 0 0. 9.
 -11 -1 0 0 0 0 0 0 -4.9977 4.9977 0 0. 9.
 15 1 1 2 0 0 -4.62007 -0.173394 -0.311672 4.96286 1.7768 0. -1
 -15 1 1 2 0 0 4.62007 0.173394 0.237903 4.95878 1.7768 0. 1
</event>
<event>
 4 80 1 -1 -1 -1
 11 -1 0 0 0 0 0 0 5 5 0 0. 9.
 -11 -1 0 0 0 0 0 0 -4.99989 4.99989 0 0. 9.
 15 1 1 2 0 0 -1.32283 1.2152 4.31458 4.99999 1.7768 0. 1
 -15 1 1 2 0 0 1.32283 -1.2152 -4.31447 4.99989 1.7768 0. -1
</event>
<event>
 4 80 1 -1 -1 -1
 11 -1 0 0 0 0 0 0 5 5 0 0. 9.
 -11 -1 0 0 0 0 0 0 -5 5 0 0. 9.
 15 1 1 2 0 0 1.70382 3.98504 -1.74891 5 1.7768 0. -1
 -15 1 1 2 0 0 -1.70382 -3.98504 1.74891 5 1.7768 0. 1
</event>
<event>
 4 80 1 -1 -1 -1
 11 -1 0 0 0 0 0 0 4.87088 4.87088 0 0. 9.
 -11 -1 0 0 0 0 0 0 -5 5 0 0. 9.
 15 1 1 2 0 0 0.53991 -4.47173 -1.01795 4.94791 1.7768 0. 1
 -15 1 1 2 0 0 -0.53991 4.47173 0.888834 4.92297 1.7768 0. -1
</event>
<event>
 4 80 1 -1 -1 -1
 11 -1 0 0 0 0 0 0 5 5 0 0. 9.
 -11 -1 0 0 0 0 0 0 -4.95993 4.95993 0 0. 9.
 15 1 1 2 0 0 3.88435 1.00224 -2.33567 4.97049 1.7768 0. 1
 -15 1 1 2 0 0 -3.88435 -1.00224 2.37573 4.98944 1.7768 0. -1
</event>
<event>
 4 80 1 -1 -1 -1
 11 -1 0 0 0 0 0 0 5 5 0 0. 9.
 -11 -1 0 0 0 0 0 0 -4.98378 4.98378 0 0. 9.
 15 1 1 2 0 0 3.68655 -0.628163 2.79665 4.99642 1.7768 0. -1
 -15 1 1 2 0 0 -3.68655 0.628163 -2.78043 4.98736 1.7768 0. 1
</event>
<event>
 4 80 1 -1 -1 -1
 11 -1 0 0 0 0 0 0 2.60379 2.60379 0 0. 9.
 -11 -1 0 0 0 0 0 0 -4.49681 4.49681 0 0. 9.
 15 1 1 2 0 0 -2.29787 1.72532 -1.50914 3.7003 1.7768 0. -1
 -15 1 1 2 0 0 2.29787 -1.72532 -0.383872 3.4003 1.7768 0. 1
</event>
<event>
 4 80 1 -1 -1 -1
 11 -1 0 0 0 0 0 0 5 5 0 0. 9.
 -11 -1 0 0 0 0 0 0 -4.99999 4.99999 0 0. 9.
 15 1 1 2 0 0 -2.24294 2.69307 3.09174 5 1.7768 0. 1
 -15 1 1 2 0 0 2.24294 -2.69307 -3.09173 4.99999 1.7768 0. -1
</event>
<event>
 4 80 1 -1 -1 -1
 11 -1 0 0 0 0 0 0 4.99907 4.99907 0 0. 9.
 -11 -1 0 0 0 0 0 0 -5 5 0 0. 9.
 15 1 1 2 0 0 -3.16302 -1.77113 -2.94936 4.99981 1.7768 0. 1
 -15 1 1 2 0 0 3.16302 1.77113 2.94843 4.99926 1.7768 0. -1
</event>
<event>
 4 80 1 -1 -1 -1
 11 -1 0 0 0 0 0 0 5 5 0 0. 9.
 -11 -1 0 0 0 0 0 0 -4.95466 4.95466 0 0. 9.
 15 1 1 2 0 0 -0.500125 -1.91017 -4.1865 4.95816 1.7768 0. 1
 -15 1 1 2 0 0 0.500125 1.91017 4.23183 4.9965 1.7768 0. -1
</event>
<event>
 4 80 1 -1 -1 -1
 11 -1 0 0 0 0 0 0 2.23493 2.23493 0 0. 9.
 -11 -1 0 0 0 0 0 0 -4.99974 4.99974 0 0. 9.
 15 1 1 2 0 0 -0.224506 -2.74736 -0.68282 3.34998 1.7768 0. 1
 -15 1 1 2 0 0 0.224506 2.74736 -2.08199 3.88469 1.7768 0. -1
</event>
<event>
 4 80 1 -1 -1 -1
 11 -1 0 0 0 0 0 0 5 5 0 0. 9.
 -11 -1 0 0 0 0 0 0 -5 5 0 0. 9.
 15 1 1 2 0 0 1.1467 0.136332 -4.52866 5 1.7768 0. -1
 -15 1 1 2 0 0 -1.1467 -0.136332 4.52866 5 1.7768 0. 1
</event>
<event>
 4 80 1 -1 -1 -1
 11 -1 0 0 0 0 0 0 4.437 4.437 0 0. 9.
 -11 -1 0 0 0 0 0 0 -5 5 0 0. 9.
 15 1 1 2 0 0 -0.429999 2.03067 -4.12485 4.94779 1.7768 0. -1
 -15 1 1 2 0 0 0.429999 -2.03067 3.56185 4.48921 1.7768 0. 1
</event>
<event>
 4 80 1 -1 -1 -1
 11 -1 0 0 0 0 0 0 5 5 0 0. 9.
 -11 -1 0 0 0 0 0 0 -4.9999 4.9999 0 0. 9.
 15 1 1 2 0 0 1.08057 1.88647 -4.13702 4.99991 1.7768 0. 1
 -15 1 1 2 0 0 -1.08057 -1.88647 4.13712 4.99999 1.7768 0. -1
</event>
<event>
 4 80 1 -1 -1 -1
 11 -1 0 0 0 0 0 0 4.79096 4.79096 0 0. 9.
 -11 -1 0 0 0 0 0 0 -4.03302 4.03302 0 0. 9.
 15 1 1 2 0 0 -0.710047 -1.8827 3.87262 4.71207 1.7768 0. -1
 -15 1 1 2 0 0 0.710047 1.8827 -3.11468 4.1119 1.7768 0. 1
</event>
<event>
 4 80 1 -1 -1 -1
 11 -1 0 0 0 0 0 0 4.99997 4.99997 0 0. 9.
 -11 -1 0 0 0 0 0 0 -0.662589 0.662589 0 0. 9.
 15 1 1 2 0 0 0.207763 -0.324408 2.0405 2.73309 1.7768 0. 1
 -15 1 1 2 0 0 -0.207763 0.324408 2.29688 2.92947 1.7768 0. -1
</event>
<event>
 4 80 1 -1 -1 -1
 11 -1 0 0 0 0 0 0 4.99982 4.99982 0 0. 9.
 -11 -1 0 0 0 0 0 0 -3.71198 3.71198 0 0. 9.
 15 1 1 2 0 0 -2.34786 0.677152 3.74895 4.81491 1.7768 0. 1
 -15 1 1 2 0 0 2.34786 -0.677152 -2.46111 3.89689 1.7768 0. -1
</event>
<event>
 4 80 1 -1 -1 -1
 11 -1 0 0 0 0 0 0 5 5 0 0. 9.
 -11 -1 0 0 0 0 0 0 -4.87661 4.87661 0 0. 9.
 15 1 1 2 0 0 1.77232 3.2814 -2.64345 4.90451 1.7768 0. -1
 -15 1 1 2 0 0 -1.77232 -3.2814 2.76684 4.9721 1.7768 0. 1
</event>
<event>
 4 80 1 -1 -1 -1
 11 -1 0 0 0 0 0 0 4.96361 4.96361 0 0. 9.
 -11 -1 0 0 0 0 0 0 -4.53638 4.53638 0 0. 9.
 15 1 1 2 0 0 -2.89314 -0.986648 3.38153 4.89246 1.7768 0. -1
 -15 1 1 2 0 0 2.89314 0.986648 -2.9543 4.60753 1.7768 0. 1
</event>
<event>
 4 80 1 -1 -1 -1
 11 -1 0 0 0 0 0 0 4.95977 4.95977 0 0. 9.
 -11 -1 0 0 0 0 0 0 -2.41118 2.41118 0 0. 9.
 15 1 1 2 0 0 2.37861 -1.74195 0.922476 3.56383 1.7768 0. -1
 -15 1 1 2 0 0 -2.37861 1.74195 1.62612 3.80712 1.7768 0. 1
</event>
<event>
 4 80 1 -1 -1 -1
 11 -1 0 0 0 0 0 0 5 5 0 0. 9.
 -11 -1 0 0 0 0 0 0 -4.99939 4.99939 0 0. 9.
 15 1 1 2 0 0 -3.18179 -2.89637 -1.82355 4.99959 1.7768 0. -1
 -15 1 1 2 0 0 3.18179 2.89637 1.82416 4.99981 1.7768 0. 1
</event>
<event>
 4 80 1 -1 -1 -1
 11 -1 0 0 0 0 0 0 1.69351 1.69351 0 0. 9.
 -11 -1 0 0 0 0 0 0 -4.99953 4.99953 0 0. 9.
 15 1 1 2 0 0 -1.11272 -1.61143 -0.256596 2.65677 1.7768 0. -1
 -15 1 1 2 0 0 1.11272 1.61143 -3.04942 4.03628 1.7768 0. 1
</event>
<event>
 4 80 1 -1 -1 -1
 11 -1 0 0 0 0 0 0 5 5 0 0. 9.
 -11 -1 0 0 0 0 0 0 -4.99998 4.99998 0 0. 9.
 15 1 1 2 0 0 -0.00351432 1.88719 -4.27558 4.99998 1.7768 0. 1
 -15 1 1 2 0 0 0.00351432 -1.88719 4.2756 5 1.7768 0. -1
</event>
<event>
 4 80 1 -1 -1 -1
 11 -1 0 0 0 0 0 0 4.99977 4.99977 0 0. 9.
 -11 -1 0 0 0 0 0 0 -2.12616 2.12616 0 0. 9.
 15 1 1 2 0 0 -1.11014 2.36253 0.549928 3.20532 1.7768 0. -1
 -15 1 1 2 0 0 1.11014 -2.36253 2.32368 3.92061 1.7768 0. 1
</event>
<event>
 4 80 1 -1 -1 -1
 11 -1 0 0 0 0 0 0 4.99996 4.99996 0 0. 9.
 -11 -1 0 0 0 0 0 0 -5 5 0 0. 9.
 15 1 1 2 0 0 3.8292 -0.746113 -2.57346 4.99999 1.7768 0. 1
 -15 1 1 2 0 0 -3.8292 0.746113 2.57343 4.99997 1.7768 0. -1
</event>
<event>
 4 80 1 -1 -1 -1
 11 -1 0 0 0 0 0 0 5 5 0 0. 9.
 -11 -1 0 0 0 0 0 0 -4.97421 4.97421 0 0. 9.
 15 1 1 2 0 0 -4.00115 2.32476 -0.53447 4.98569 1.7768 0. 1
 -15 1 1 2 0 0 4.00115 -2.32476 0.560262 4.98852 1.7768 0. -1
</event>
<event>
 4 80 1 -1 -1 -1
 11 -1 0 0 0 0 0 0 4.30989 4.30989 0 0. 9.
 -11 -1 0 0 0 0 0 0 -5 5 0 0. 9.
 15 1 1 2 0 0 -0.645231 4.23734 -0.487957 4.66554 1.7768 0. -1
 -15 1 1 2 0 0 0.645231 -4.23734 -0.202157 4.64435 1.7768 0. 1
</event>
<event>
 4 80 1 -1 -1 -1
 11 -1 0 0 0 0 0 0 5 5 0 0. 9.
 -11 -1 0 0 0 0 0 0 -5 5 0 0. 9.
 15 1 1 2 0 0 -0.170606 2.21819 -4.11008 5 1.7768 0. 1
 -15 1 1 2 0 0 0.170606 -2.21819 4.11008 5 1.7768 0. -1
</event>
<event>
 4 80 1 -1 -1 -1
 11 -1 0 0 0 0 0 0 5 5 0 0. 9.
 -11 -1 0 0 0 0 0 0 -4.08811 4.08811 0 0. 9.
 15 1 1 2 0 0 3.71974 -1.46646 1.60008 4.65886 1.7768 0. 1
 -15 1 1 2 0 0 -3.71974 1.46646 -0.688197 4.42926 1.7768 0. -1
</event>
<event>
 4 80 1 -1 -1 -1
 11 -1 0 0 0 0 0 0 2.59164 2.59164 0 0. 9.
 -11 -1 0 0 0 0 0 0 -4.99685 4.99685 0 0. 9.
 15 1 1 2 0 0 -0.0711248 -0.0699601 -4.50031 4.83947 1.7768 0. 1
 -15 1 1 2 0 0 0.0711248 0.0699601 2.0951 2.74902 1.7768 0. -1
</event>
<event>
 4 80 1 -1 -1 -1
 11 -1 0 0 0 0 0 0 3.18562 3.18562 0 0. 9.
 -11 -1 0 0 0 0 0 0 -5 5 0 0. 9.
 15 1 1 2 0 0 3.36007 -1.12046 -0.420847 3.98501 1.7768 0. 1
 -15 1 1 2 0 0 -3.36007 1.12046 -1.39353 4.20061 1.7768 0. -1
</event>
<event>
 4 80 1 -1 -1 -1
 11 -1 0 0 0 0 0 0 0.73777 0.73777 0 0. 9.
 -11 -1 0 0 0 0 0 0 -5 5 0 0. 9.
 15 1 1 2 0 0 0.548425 0.150745 -1.45048 2.36329 1.7768 0. 1
 -15 1 1 2 0 0 -0.548425 -0.150745 -2.81175 3.37448 1.7768 0. -1
</event>
<event>
 4 80 1 -1 -1 -1
 11 -1 0 0 0 0 0 0 5 5 0 0. 9.
 -11 -1 0 0 0 0 0 0 -5 5 0 0. 9.
 15 1 1 2 0 0 0.866564 3.08516 -3.40192 5 1.7768 0. -1
 -15 1 1 2 0 0 -0.866564 -3.08516 3.40193 5 1.7768 0. 1
</event>
<event>
 4 80 1 -1 -1 -1
 11 -1 0 0 0 0 0 0 4.76498 4.76498 0 0. 9.
 -11 -1 0 0 0 0 0 0 -4.99234 4.99234 0 0. 9.
 15 1 1 2 0 0 -4.42155 0.513871 0.790193 4.8576 1.7768 0. 1
 -15 1 1 2 0 0 4.42155 -0.513871 -1.01755 4.89973 1.7768 0. -1
</event>
<event>
 4 80 1 -1 -1 -1
 11 -1 0 0 0 0 0 0 5 5 0 0. 9.
 -11 -1 0 0 0 0 0 0 -2.26365 2.26365 0 0. 9.
 15 1 1 2 0 0 1.15977 0.657427 -1.35927 2.60435 1.7768 0. -1
 -15 1 1 2 0 0 -1.15977 -0.657427 4.09562 4.6593 1.7768 0. 1
</event>
<event>
 4 80 1 -1 -1 -1
 11 -1 0 0 0 0 0 0 4.99937 4.99937 0 0. 9.
 -11 -1 0 0 0 0 0 0 -4.99944 4.99944 0 0. 9.
 15 1 1 2 0 0 2.01922 -4.20921 -0.204093 4.99941 1.7768 0. 1
 -15 1 1 2 0 0 -2.01922 4.20921 0.204021 4.9994 1.7768 0. -1
</event>
<event>
 4 80 1 -1 -1 -1
 11 -1 0 0 0 0 0 0 5 5 0 0. 9.
 -11 -1 0 0 0 0 0 0 -4.91156 4.91156 0 0. 9.
 15 1 1 2 0 0 1.74889 1.37032 4.10193 4.99199 1.7768 0. 1
 -15 1 1 2 0 0 -1.74889 -1.37032 -4.01349 4.91958 1.7768 0. -1
</event>
<event>
 4 80 1 -1 -1 -1
 11 -1 0 0 0 0 0 0 5 5 0 0. 9.
 -11 -1 0 0 0 0 0 0 -5 5 0 0. 9.
 15 1 1 2 0 0 2.78524 2.30248 2.96366 5 1.7768 0. 1
 -15 1 1 2 0 0 -2.78524 -2.30248 -2.96366 5 1.7768 0. -1
</event>
<event>
 4 80 1 -1 -1 -1
 11 -1 0 0 0 0 0 0 4.99995 4.99995 0 0. 9.
 -11 -1 0 0 0 0 0 0 -5 5 0 0. 9.
 15 1 1 2 0 0 -0.278506 0.538013 -4.63414 5 1.7768 0. -1
 -15 1 1 2 0 0 0.278506 -0.538013 4.63409 4.99995 1.7768 0. 1
</event>
<event>
 4 80 1 -1 -1 -1
 11 -1 0 0 0 0 0 0 5 5 0 0. 9.
 -11 -1 0 0 0 0 0 0 -5 5 0 0. 9.
 15 1 1 2 0 0 4.63074 0.628858 0.0552231 5 1.7768 0. 1
 -15 1 1 2 0 0 -4.63074 -0.628858 -0.0552231 5 1.7768 0. -1
</event>
<event>
 4 80 1 -1 -1 -1
 11 -1 0 0 0 0 0 0 4.98703 4.98703 0 0. 9.
 -11 -1 0 0 0 0 0 0 -4.99859 4.99859 0 0. 9.
 15 1 1 2 0 0 -2.70245 2.31717 3.01049 4.98932 1.7768 0. -1
 -15 1 1 2 0 0 2.70245 -2.31717 -3.02205 4.9963 1.7768 0. 1
</event>
<event>
 4 80 1 -1 -1 -1
 11 -1 0 0 0 0 0 0 5 5 0 0. 9.
 -11 -1 0 0 0 0 0 0 -4.96186 4.96186 0 0. 9.
 15 1 1 2 0 0 0.419517 3.84701 2.60289 4.99082 1.7768 0. 1
 -15 1 1 2 0 0 -0.419517 -3.84701 -2.56475 4.97104 1.7768 0. -1
</event>
<event>
 4 80 1 -1 -1 -1
 11 -1 0 0 0 0 0 0 5 5 0 0. 9.
 -11 -1 0 0 0 0 0 0 -5 5 0 0. 9.
 15 1 1 2 0 0 -1.39359 1.2589 -4.27964 5 1.7768 0. -1
 -15 1 1 2 0 0 1.39359 -1.2589 4.27964 5 1.7768 0. 1
</event>
<event>
 4 80 1 -1 -1 -1
 11 -1 0 0 0 0 0 0 4.99911 4.99911 0 0. 9.
 -11 -1 0 0 0 0 0 0 -5 5 0 0. 9.
 15 1 1 2 0 0 2.49115 0.157345 -3.95104 4.99991 1.7768 0. 1
 -15 1 1 2 0 0 -2.49115 -0.157345 3.95016 4.99921 1.7768 0. -1
</event>
<event>
 4 80 1 -1 -1 -1
 11 -1 0 0 0 0 0 0 5 5 0 0. 9.
 -11 -1 0 0 0 0 0 0 -5 5 0 0. 9.
 15 1 1 2 0 0 4.0267 -2.26051 -0.719757 5 1.7768 0. -1
 -15 1 1 2 0 0 -4.0267 2.26051 0.719757 5 1.7768 0. 1
</event>
<event>
 4 80 1 -1 -1 -1
 11 -1 0 0 0 0 0 0 5 5 0 0. 9.
 -11 -1 0 0 0 0 0 0 -4.99752 4.99752 0 0. 9.
 15 1 1 2 0 0 4.54357 0.226244 1.06644 4.99903 1.7768 0. 1
 -15 1 1 2 0 0 -4.54357 -0.226244 -1.06396 4.9985 1.7768 0. -1
</event>
<event>
 4 80 1 -1 -1 -1
 11 -1 0 0 0 0 0 0 3.48585 3.48585 0 0. 9.
 -11 -1 0 0 0 0 0 0 -5 5 0 0. 9.
 15 1 1 2 0 0 1.60808 -1.57378 2.32702 3.69262 1.7768 0. 1
 -15 1 1 2 0 0 -1.60808 1.57378 -3.84117 4.79323 1.7768 0. -1
</event>
<event>
 4 80 1 -1 -1 -1
 11 -1 0 0 0 0 0 0 5 5 0 0. 9.
 -11 -1 0 0 0 0 0 0 -5 5 0 0. 9.
 15 1 1 2 0 0 1.17052 4.23092 1.60357 5 1.7768 0. -1
 -15 1 1 2 0 0 -1.17052 -4.23092 -1.60357 5 1.7768 0. 1
</event>
<event>
 4 80 1 -1 -1 -1
 11 -1 0 0 0 0 0 0 0.78774 0.78774 0 0. 9.
 -11 -1 0 0 0 0 0 0 -4.99852 4.99852 0 0. 9.
 15 1 1 2 0 0 -0.396352 0.651314 -2.75498 3.36585 1.7768 0. 1
 -15 1 1 2 0 0 0.396352 -0.651314 -1.4558 2.42041 1.7768 0. -1
</event>
<event>
 4 80 1 -1 -1 -1
 11 -1 0 0 0 0 0 0 4.99999 4.99999 0 0. 9.
 -11 -1 0 0 0 0 0 0 -5 5 0 0. 9.
 15 1 1 2 0 0 -0.0480978 4.663 -0.310375 5 1.7768 0. -1
 -15 1 1 2 0 0 0.0480978 -4.663 0.310371 5 1.7768 0. 1
</event>
<event>
 4 80 1 -1 -1 -1
 11 -1 0 0 0 0 0 0 5 5 0 0. 9.
 -11 -1 0 0 0 0 0 0 -2.38459 2.38459 0 0. 9.
 15 1 1 2 0 0 -0.11354 -2.70307 2.59344 4.14767 1.7768 0. 1
 -15 1 1 2 0 0 0.11354 2.70307 0.0219706 3.23693 1.7768 0. -1
</event>
<event>
 4 80 1 -1 -1 -1
 11 -1 0 0 0 0 0 0 5 5 0 0. 9.
 -11 -1 0 0 0 0 0 0 -5 5 0 0. 9.
 15 1 1 2 0 0 2.78648 3.23375 -1.90281 5 1.7768 0. 1
 -15 1 1 2 0 0 -2.78648 -3.23375 1.90281 5 1.7768 0. -1
</event>
<event>
 4 80 1 -1 -1 -1
 11 -1 0 0 0 0 0 0 4.99342 4.99342 0 0. 9.
 -11 -1 0 0 0 0 0 0 -4.40146 4.40146 0 0. 9.
 15 1 1 2 0 0 2.40621 -0.0733187 -3.32027 4.46958 1.7768 0. 1
 -15 1 1 2 0 0 -2.40621 0.0733187 3.91224 4.9253 1.7768 0. -1
</event>
<event>
 4 80 1 -1 -1 -1
 11 -1 0 0 0 0 0 0 1.12041 1.12041 0 0. 9.
 -11 -1 0 0 0 0 0 0 -5 5 0 0. 9.
 15 1 1 2 0 0 -0.243335 0.971117 -3.49242 4.04438 1.7768 0. 1
 -15 1 1 2 0 0 0.243335 -0.971117 -0.387169 2.07603 1.7768 0. -1
</event>
<event>
 4 80 1 -1 -1 -1
 11 -1 0 0 0 0 0 0 4.99529 4.99529 0 0. 9.
 -11 -1 0 0 0 0 0 0 -5 5 0 0. 9.
 15 1 1 2 0 0 -0.49909 4.36634 1.58029 4.9969 1.7768 0. 1
 -15 1 1 2 0 0 0.49909 -4.36634 -1.58499 4.99839 1.7768 0. -1
</event>
<event>
 4 80 1 -1 -1 -1
 11 -1 0 0 0 0 0 0 4.99802 4.99802 0 0. 9.
 -11 -1 0 0 0 0 0 0 -1.57447 1.57447 0 0. 9.
 15 1 1 2 0 0 1.53433 0.329724 3.46846 4.20128 1.7768 0. -1
 -15 1 1 2 0 0 -1.53433 -0.329724 -0.0448995 2.37121 1.7768 0. 1
</event>
<event>
 4 80 1 -1 -1 -1
 11 -1 0 0 0 0 0 0 5 5 0 0. 9.
 -11 -1 0 0 0 0 0 0 -5 5 0 0. 9.
 15 1 1 2 0 0 -3.32006 -2.39693 2.2526 5 1.7768 0. -1
 -15 1 1 2 0 0 3.32006 2.39693 -2.2526 5 1.7768 0. 1
</event>
<event>
 4 80 1 -1 -1 -1
 11 -1 0 0 0 0 0 0 4.99998 4.99998 0 0. 9.
 -11 -1 0 0 0 0 0 0 -2.48745 2.48745 0 0. 9.
 15 1 1 2 0 0 -1.3391 0.374334 4.13348 4.70921 1.7768 0. -1
 -15 1 1 2 0 0 1.3391 -0.374334 -1.62094 2.77822 1.7768 0. 1
</event>
<event>
 4 80 1 -1 -1 -1
 11 -1 0 0 0 0 0 0 5 5 0 0. 9.
 -11 -1 0 0 0 0 0 0 -1.24958 1.24958 0 0. 9.
 15 1 1 2 0 0 -0.248381 -0.400516 -0.241919 1.85428 1.7768 0. -1
 -15 1 1 2 0 0 0.248381 0.400516 3.99234 4.3953 1.7768 0. 1
</event>
<event>
 4 80 1 -1 -1 -1
 11 -1 0 0 0 0 0 0 5 5 0 0. 9.
 -11 -1 0 0 0 0 0 0 -5 5 0 0. 9.
 15 1 1 2 0 0 3.25144 -0.191978 -3.35165 5 1.7768 0. -1
 -15 1 1 2 0 0 -3.25144 0.191978 3.35165 5 1.7768 0. 1
</event>
<event>
 4 80 1 -1 -1 -1
 11 -1 0 0 0 0 0 0 5 5 0 0. 9.
 -11 -1 0 0 0 0 0 0 -4.99999 4.99999 0 0. 9.
 15 1 1 2 0 0 0.130492 2.26222 4.0875 5 1.7768 0. 1
 -15 1 1 2 0 0 -0.130492 -2.26222 -4.08749 5 1.7768 0. -1
</event>
<event>
 4 80 1 -1 -1 -1
 11 -1 0 0 0 0 0 0 2.52209 2.52209 0 0. 9.
 -11 -1 0 0 0 0 0 0 -5 5 0 0. 9.
 15 1 1 2 0 0 0.136049 -0.598471 1.95179 2.70996 1.7768 0. 1
 -15 1 1 2 0 0 -0.136049 0.598471 -4.4297 4.81213 1.7768 0. -1
</event>
<event>
 4 80 1 -1 -1 -1
 11 -1 0 0 0 0 0 0 4.31267 4.31267 0 0. 9.
 -11 -1 0 0 0 0 0 0 -5 5 0 0. 9.
 15 1 1 2 0 0 -2.08241 -2.28092 -3.32949 4.87671 1.7768 0. -1
 -15 1 1 2 0 0 2.08241 2.28092 2.64217 4.43596 1.7768 0. 1
</event>
<event>
 4 80 1 -1 -1 -1
 11 -1 0 0 0 0 0 0 5 5 0 0. 9.
 -11 -1 0 0 0 0 0 0 -4.99684 4.99684 0 0. 9.
 15 1 1 2 0 0 -1.39886 1.51422 4.19405 4.99975 1.7768 0. -1
 -15 1 1 2 0 0 1.39886 -1.51422 -4.19088 4.99709 1.7768 0. 1
</event>
<event>
 4 80 1 -1 -1 -1
 11 -1 0 0 0 0 0 0 5 5 0 0. 9.
 -11 -1 0 0 0 0 0 0 -4.9477 4.9477 0 0. 9.
 15 1 1 2 0 0 -0.78837 3.2521 3.24847 4.99079 1.7768 0. -1
 -15 1 1 2 0 0 0.78837 -3.2521 -3.19617 4.95691 1.7768 0. 1
</event>
<event>
 4 80 1 -1 -1 -1
 11 -1 0 0 0 0 0 0 4.99991 4.99991 0 0. 9.
 -11 -1 0 0 0 0 0 0 -5 5 0 0. 9.
 15 1 1 2 0 0 -2.57018 -1.90788 -3.40533 4.99998 1.7768 0. 1
 -15 1 1 2 0 0 2.57018 1.90788 3.40524 4.99992 1.7768 0. -1
</event>
<event>
 4 80 1 -1 -1 -1
 11 -1 0 0 0 0 0 0 4.99999 4.99999 0 0. 9.
 -11 -1 0 0 0 0 0 0 -5 5 0 0. 9.
 15 1 1 2 0 0 -3.16407 3.39302 -0.564201 5 1.7768 0. 1
 -15 1 1 2 0 0 3.16407 -3.39302 0.564193 5 1.7768 0. -1
</event>
<event>
 4 80 1 -1 -1 -1
 11 -1 0 0 0 0 0 0 4.98926 4.98926 0 0. 9.
 -11 -1 0 0 0 0 0 0 -4.99013 4.99013 0 0. 9.
 15 1 1 2 0 0 3.60085 0.738132 -2.86894 4.98994 1.7768 0. -1
 -15 1 1 2 0 0 -3.60085 -0.738132 2.86807 4.98944 1.7768 0. 1
</event>
<event>
 4 80 1 -1 -1 -1
 11 -1 0 0 0 0 0 0 5 5 0 0. 9.
 -11 -1 0 0 0 0 0 0 -5 5 0 0. 9.
 15 1 1 2 0 0 2.86385 0.228148 3.68627 5 1.7768 0. 1
 -15 1 1 2 0 0 -2.86385 -0.228148 -3.68627 5 1.7768 0. -1
</event>
<event>
 4 80 1 -1 -1 -1
 11 -1 0 0 0 0 0 0 5 5 0 0. 9.
 -11 -1 0 0 0 0 0 0 -5 5 0 0. 9.
 15 1 1 2 0 0 -2.68619 1.26862 3.60794 5 1.7768 0. 1
 -15 1 1 2 0 0 2.68619 -1.26862 -3.60794 5 1.7768 0. -1
</event>
<event>
 4 80 1 -1 -1 -1
 11 -1 0 0 0 0 0 0 5 5 0 0. 9.
 -11 -1 0 0 0 0 0 0 -2.8374 2.8374 0 0. 9.
 15 1 1 2 0 0 -1.66631 2.35626 2.79105 4.39048 1.7768 0. 1
 -15 1 1 2 0 0 1.66631 -2.35626 -0.62845 3.44692 1.7768 0. -1
</event>
<event>
 4 80 1 -1 -1 -1
 11 -1 0 0 0 0 0 0 5 5 0 0. 9.
 -11 -1 0 0 0 0 0 0 -4.99813 4.99813 0 0. 9.
 15 1 1 2 0 0 -0.862149 -3.65977 2.77504 4.99958 1.7768 0. -1
 -15 1 1 2 0 0 0.862149 3.65977 -2.77318 4.99855 1.7768 0. 1
</event>
<event>
 4 80 1 -1 -1 -1
 11 -1 0 0 0 0 0 0 5 5 0 0. 9.
 -11 -1 0 0 0 0 0 0 -3.89793 3.89793 0 0. 9.
 15 1 1 2 0 0 -0.565152 0.662796 4.52795 4.94153 1.7768 0. -1
 -15 1 1 2 0 0 0.565152 -0.662796 -3.42588 3.9564 1.7768 0. 1
</event>
<event>
 4 80 1 -1 -1 -1
 11 -1 0 0 0 0 0 0 1.79413 1.79413 0 0. 9.
 -11 -1 0 0 0 0 0 0 -5 5 0 0. 9.
 15 1 1 2 0 0 -2.16813 -0.187531 -0.425898 2.84167 1.7768 0. 1
 -15 1 1 2 0 0 2.16813 0.187531 -2.77997 3.95246 1.7768 0. -1
</event>
<event>
 4 80 1 -1 -1 -1
 11 -1 0 0 0 0 0 0 4.99408 4.99408 0 0. 9.
 -11 -1 0 0 0 0 0 0 -5 5 0 0. 9.
 15 1 1 2 0 0 1.22696 3.69989 2.5696 4.99551 1.7768 0. 1
 -15 1 1 2 0 0 -1.22696 -3.69989 -2.57552 4.99856 1.7768 0. -1
</event>
<event>
 4 80 1 -1 -1 -1
 11 -1 0 0 0 0 0 0 5 5 0 0. 9.
 -11 -1 0 0 0 0 0 0 -5 5 0 0. 9.
 15 1 1 2 0 0 4.05151 -0.169329 2.32355 5 1.7768 0. -1
 -15 1 1 2 0 0 -4.05151 0.169329 -2.32355 5 1.7768 0. 1
</event>
<event>
 4 80 1 -1 -1 -1
 11 -1 0 0 0 0 0 0 4.9993 4.9993 0 0. 9.
 -11 -1 0 0 0 0 0 0 -4.06574 4.06574 0 0. 9.
 15 1 1 2 0 0 2.1188 3.55435 0.252549 4.51046 1.7768 0. -1
 -15 1 1 2 0 0 -2.1188 -3.55435 0.681015 4.55458 1.7768 0. 1
</event>
<event>
 4 80 1 -1 -1 -1
 11 -1 0 0 0 0 0 0 5 5 0 0. 9.
 -11 -1 0 0 0 0 0 0 -4.99998 4.99998 0 0. 9.
 15 1 1 2 0 0 -3.94764 -0.825561 -2.36151 4.99999 1.7768 0. -1
 -15 1 1 2 0 0 3.94764 0.825561 2.36153 5 1.7768 0. 1
</event>
<event>
 4 80 1 -1 -1 -1
 11 -1 0 0 0 0 0 0 0.900956 0.900956 0 0. 9.
 -11 -1 0 0 0 0 0 0 -4.99944 4.99944 0 0. 9.
 15 1 1 2 0 0 0.729969 0.108938 -3.29398 3.81481 1.7768 0. -1
 -15 1 1 2 0 0 -0.729969 -0.108938 -0.804503 2.08559 1.7768 0. 1
</event>
<event>
 4 80 1 -1 -1 -1
 11 -1 0 0 0 0 0 0 5 5 0 0. 9.
 -11 -1 0 0 0 0 0 0 -3.69711 3.69711 0 0. 9.
 15 1 1 2 0 0 -3.85758 0.374677 0.0914787 4.26467 1.7768 0. -1
 -15 1 1 2 0 0 3.85758 -0.374677 1.21141 4.43244 1.7768 0. 1
</event>
<event>
 4 80 1 -1 -1 -1
 11 -1 0 0 0 0 0 0 3.44303 3.44303 0 0. 9.
 -11 -1 0 0 0 0 0 0 -5 5 0 0. 9.
 15 1 1 2 0 0 -3.58715 0.186796 0.314926 4.01988 1.7768 0. -1
 -15 1 1 2 0 0 3.58715 -0.186796 -1.8719 4.42315 1.7768 0. 1
</event>
<event>
 4 80 1 -1 -1 -1
 11 -1 0 0 0 0 0 0 4.99999 4.99999 0 0. 9.
 -11 -1 0 0 0 0 0 0 -5 5 0 0. 9.
 15 1 1 2 0 0 -0.510385 4.10395 -2.177 5 1.7768 0. -1
 -15 1 1 2 0 0 0.510385 -4.10395 2.177 4.99999 1.7768 0. 1
</event>
<event>
 4 80 1 -1 -1 -1
 11 -1 0 0 0 0 0 0 5 5 0 0. 9.
 -11 -1 0 0 0 0 0 0 -4.99995 4.99995 0 0. 9.
 15 1 1 2 0 0 1.14611 1.05998 -4.40507 4.99995 1.7768 0. 1
 -15 1 1 2 0 0 -1.14611 -1.05998 4.40512 5 1.7768 0. -1
</event>
<event>
 4 80 1 -1 -1 -1
 11 -1 0 0 0 0 0 0 5 5 0 0. 9.
 -11 -1 0 0 0 0 0 0 -3.99874 3.99874 0 0. 9.
 15 1 1 2 0 0 -0.495235 3.98378 -0.353315 4.40435 1.7768 0. 1
 -15 1 1 2 0 0 0.495235 -3.98378 1.35457 4.59439 1.7768 0. -1
</event>
<event>
 4 80 1 -1 -1 -1
 11 -1 0 0 0 0 0 0 5 5 0 0. 9.
 -11 -1 0 0 0 0 0 0 -4.89788 4.89788 0 0. 9.
 15 1 1 2 0 0 0.423207 -2.41264 3.96684 4.98934 1.7768 0. 1
 -15 1 1 2 0 0 -0.423207 2.41264 -3.86472 4.90854 1.7768 0. -1
</event>
<event>
 4 80 1 -1 -1 -1
 11 -1 0 0 0 0 0 0 4.99976 4.99976 0 0. 9.
 -11 -1 0 0 0 0 0 0 -5 5 0 0. 9.
 15 1 1 2 0 0 -2.63721 2.81747 2.6358 4.99982 1.7768 0. -1
 -15 1 1 2 0 0 2.63721 -2.81747 -2.63604 4.99994 1.7768 0. 1
</event>
<event>
 4 80 1 -1 -1 -1
 11 -1 0 0 0 0 0 0 4.99999 4.99999 0 0. 9.
 -11 -1 0 0 0 0 0 0 -4.99999 4.99999 0 0. 9.
 15 1 1 2 0 0 4.33168 -0.700165 1.60888 4.99999 1.7768 0. 1
 -15 1 1 2 0 0 -4.33168 0.700165 -1.60888 4.99999 1.7768 0. -1
</event>
<event>
 4 80 1 -1 -1 -1
 11 -1 0 0 0 0 0 0 5 5 0 0. 9.
 -11 -1 0 0 0 0 0 0 -5 5 0 0. 9.
 15 1 1 2 0 0 4.60107 0.81987 -0.0155201 5 1.7768 0. 1
 -15 1 1 2 0 0 -4.60107 -0.81987 0.0155161 5 1.7768 0. -1
</event>
<event>
 4 80 1 -1 -1 -1
 11 -1 0 0 0 0 0 0 4.93753 4.93753 0 0. 9.
 -11 -1 0 0 0 0 0 0 -5 5 0 0. 9.
 15 1 1 2 0 0 0.343689 -4.23021 1.8442 4.95698 1.7768 0. 1
 -15 1 1 2 0 0 -0.343689 4.23021 -1.90667 4.98056 1.7768 0. -1
</event>
<event>
 4 80 1 -1 -1 -1
 11 -1 0 0 0 0 0 0 5 5 0 0. 9.
 -11 -1 0 0 0 0 0 0 -4.99998 4.99998 0 0. 9.
 15 1 1 2 0 0 0.578068 2.33806 4.00519 5 1.7768 0. 1
 -15 1 1 2 0 0 -0.578068 -2.33806 -4.00517 4.99998 1.7768 0. -1
</event>
<event>
 4 80 1 -1 -1 -1
 11 -1 0 0 0 0 0 0 4.63555 4.63555 0 0. 9.
 -11 -1 0 0 0 0 0 0 -5 5 0 0. 9.
 15 1 1 2 0 0 -1.63427 4.16433 -0.0952392 4.81449 1.7768 0. 1
 -15 1 1 2 0 0 1.63427 -4.16433 -0.269207 4.82107 1.7768 0. -1
</event>
<event>
 4 80 1 -1 -1 -1
 11 -1 0 0 0 0 0 0 5 5 0 0. 9.
 -11 -1 0 0 0 0 0 0 -5 5 0 0. 9.
 15 1 1 2 0 0 2.77449 -3.48841 -1.40553 5 1.7768 0. 1
 -15 1 1 2 0 0 -2.77449 3.48841 1.40553 5 1.7768 0. -1
</event>
<event>
 4 80 1 -1 -1 -1
 11 -1 0 0 0 0 0 0 4.43512 4.43512 0 0. 9.
 -11 -1 0 0 0 0 0 0 -5 5 0 0. 9.
 15 1 1 2 0 0 -0.212839 0.918639 -4.54787 4.97293 1.7768 0. -1
 -15 1 1 2 0 0 0.212839 -0.918639 3.98299 4.46219 1.7768 0. 1
</event>
<event>
 4 80 1 -1 -1 -1
 11 -1 0 0 0 0 0 0 5 5 0 0. 9.
 -11 -1 0 0 0 0 0 0 -5 5 0 0. 9.
 15 1 1 2 0 0 1.50144 2.88462 -3.35662 5 1.7768 0. -1
 -15 1 1 2 0 0 -1.50144 -2.88462 3.35662 5 1.7768 0. 1
</event>
<event>
 4 80 1 -1 -1 -1
 11 -1 0 0 0 0 0 0 5 5 0 0. 9.
 -11 -1 0 0 0 0 0 0 -5 5 0 0. 9.
 15 1 1 2 0 0 0.592548 4.35552 -1.58764 5 1.7768 0. -1
 -15 1 1 2 0 0 -0.592548 -4.35552 1.58764 5 1.7768 0. 1
</event>
<event>
 4 80 1 -1 -1 -1
 11 -1 0 0 0 0 0 0 3.2163 3.2163 0 0. 9.
 -11 -1 0 0 0 0 0 0 -4.96863 4.96863 0 0. 9.
 15 1 1 2 0 0 -0.667455 3.00399 0.99853 3.69111 1.7768 0. 1
 -15 1 1 2 0 0 0.667455 -3.00399 -2.75086 4.49382 1.7768 0. -1
</event>
<event>
 4 80 1 -1 -1 -1
 11 -1 0 0 0 0 0 0 4.90987 4.90987 0 0. 9.
 -11 -1 0 0 0 0 0 0 -5 5 0 0. 9.
 15 1 1 2 0 0 4.18825 -0.945395 1.67443 4.93929 1.7768 0. -1
 -15 1 1 2 0 0 -4.18825 0.945395 -1.76456 4.97057 1.7768 0. 1
</event>
<event>
 4 80 1 -1 -1 -1
 11 -1 0 0 0 0 0 0 4.97782 4.97782 0 0. 9.
 -11 -1 0 0 0 0 0 0 -4.92809 4.92809 0 0. 9.
 15 1 1 2 0 0 -2.76039 -3.40344 -1.44833 4.94556 1.7768 0. -1
 -15 1 1 2 0 0 2.76039 3.40344 1.49807 4.96035 1.7768 0. 1
</event>
<event>
 4 80 1 -1 -1 -1
 11 -1 0 0 0 0 0 0 4.99979 4.99979 0 0. 9.
 -11 -1 0 0 0 0 0 0 -4.0452 4.0452 0 0. 9.
 15 1 1 2 0 0 -0.252967 -3.14637 -2.20297 4.23963 1.7768 0. 1
 -15 1 1 2 0 0 0.252967 3.14637 3.15756 4.80536 1.7768 0. -1
</event>
<event>
 4 80 1 -1 -1 -1
 11 -1 0 0 0 0 0 0 4.97087 4.97087 0 0. 9.
 -11 -1 0 0 0 0 0 0 -5 5 0 0. 9.
 15 1 1 2 0 0 -1.2774 -2.78235 -3.52505 4.99569 1.7768 0. 1
 -15 1 1 2 0 0 1.2774 2.78235 3.49592 4.97518 1.7768 0. -1
</event>
<event>
 4 80 1 -1 -1 -1
 11 -1 0 0 0 0 0 0 4.98592 4.98592 0 0. 9.
 -11 -1 0 0 0 0 0 0 -5 5 0 0. 9.
 15 1 1 2 0 0 -3.5738 -1.76693 2.41738 4.98954 1.7768 0. 1
 -15 1 1 2 0 0 3.5738 1.76693 -2.43146 4.99638 1.7768 0. -1
</event>
<event>
 4 80 1 -1 -1 -1
 11 -1 0 0 0 0 0 0 4.99959 4.99959 0 0. 9.
 -11 -1 0 0 0 0 0 0 -5 5 0 0. 9.
 15 1 1 2 0 0 -1.75953 -4.32946 -0.00385734 4.9998 1.7768 0. -1
 -15 1 1 2 0 0 1.75953 4.32946 0.00344792 4.9998 1.7768 0. 1
</event>
<event>
 4 80 1 -1 -1 -1
 11 -1 0 0 0 0 0 0 5 5 0 0. 9.
 -11 -1 0 0 0 0 0 0 -5 5 0 0. 9.
 15 1 1 2 0 0 -3.21372 2.0226 -2.72459 5 1.7768 0. -1
 -15 1 1 2 0 0 3.21372 -2.0226 2.72459 5 1.7768 0. 1
</event>
<event>
 4 80 1 -1 -1 -1
 11 -1 0 0 0 0 0 0 5 5 0 0. 9.
 -11 -1 0 0 0 0 0 0 -5 5 0 0. 9.
 15 1 1 2 0 0 -1.99732 -3.75314 -1.94087 5 1.7768 0. 1
 -15 1 1 2 0 0 1.99732 3.75314 1.94087 5 1.7768 0. -1
</event>
<event>
 4 80 1 -1 -1 -1
 11 -1 0 0 0 0 0 0 5 5 0 0. 9.
 -11 -1 0 0 0 0 0 0 -1.37408 1.37408 0 0. 9.
 15 1 1 2 0 0 -0.177403 1.6736 0.672163 2.5381 1.7768 0. 1
 -15 1 1 2 0 0 0.177403 -1.6736 2.95375 3.83599 1.7768 0. -1
</event>
<event>
 4 80 1 -1 -1 -1
 11 -1 0 0 0 0 0 0 5 5 0 0. 9.
 -11 -1 0 0 0 0 0 0 -5 5 0 0. 9.
 15 1 1 2 0 0 -0.826471 3.67496 2.76656 5 1.7768 0. 1
 -15 1 1 2 0 0 0.826471 -3.67496 -2.76656 5 1.7768 0. -1
</event>
<event>
 4 80 1 -1 -1 -1
 11 -1 0 0 0 0 0 0 5 5 0 0. 9.
 -11 -1 0 0 0 0 0 0 -4.6636 4.6636 0 0. 9.
 15 1 1 2 0 0 3.7335 -1.28679 -1.96978 4.75738 1.7768 0. 1
 -15 1 1 2 0 0 -3.7335 1.28679 2.30618 4.90623 1.7768 0. -1
</event>
<event>
 4 80 1 -1 -1 -1
 11 -1 0 0 0 0 0 0 5 5 0 0. 9.
 -11 -1 0 0 0 0 0 0 -3.89481 3.89481 0 0. 9.
 15 1 1 2 0 0 3.27166 1.06333 2.68618 4.71251 1.7768 0. -1
 -15 1 1 2 0 0 -3.27166 -1.06333 -1.58099 4.1823 1.7768 0. 1
</event>
<event>
 4 80 1 -1 -1 -1
 11 -1 0 0 0 0 0 0 4.66469 4.66469 0 0. 9.
 -11 -1 0 0 0 0 0 0 -4.99995 4.99995 0 0. 9.
 15 1 1 2 0 0 3.44104 0.750519 2.61999 4.73562 1.7768 0. 1
 -15 1 1 2 0 0 -3.44104 -0.750519 -2.95525 4.92902 1.7768 0. -1
</event>
<event>
 4 80 1 -1 -1 -1
 11 -1 0 0 0 0 0 0 5 5 0 0. 9.
 -11 -1 0 0 0 0 0 0 -4.95164 4.95164 0 0. 9.
 15 1 1 2 0 0 -0.0415982 -3.91012 -2.48777 4.96362 1.7768 0. -1
 -15 1 1 2 0 0 0.0415982 3.91012 2.53613 4.98803 1.7768 0. 1
</event>
<event>
 4 80 1 -1 -1 -1
 11 -1 0 0 0 0 0 0 5 5 0 0. 9.
 -11 -1 0 0 0 0 0 0 -5 5 0 0. 9.
 15 1 1 2 0 0 -1.21072 -2.56217 -3.71641 5 1.7768 0. -1
 -15 1 1 2 0 0 1.21072 2.56217 3.71641 5 1.7768 0. 1
</event>
<event>
 4 80 1 -1 -1 -1
 11 -1 0 0 0 0 0 0 5 5 0 0. 9.
 -11 -1 0 0 0 0 0 0 -5 5 0 0. 9.
 15 1 1 2 0 0 -0.705723 2.63584 -3.79428 5 1.7768 0. -1
 -15 1 1 2 0 0 0.705723 -2.63584 3.79428 5 1.7768 0. 1
</event>
<event>
 4 80 1 -1 -1 -1
 11 -1 0 0 0 0 0 0 5 5 0 0. 9.
 -11 -1 0 0 0 0 0 0 -4.99991 4.99991 0 0. 9.
 15 1 1 2 0 0 2.75379 1.10818 -3.60972 4.99992 1.7768 0. 1
 -15 1 1 2 0 0 -2.75379 -1.10818 3.60981 4.99998 1.7768 0. -1
</event>
<event>
 4 80 1 -1 -1 -1
 11 -1 0 0 0 0 0 0 5 5 0 0. 9.
 -11 -1 0 0 0 0 0 0 -4.99974 4.99974 0 0. 9.
 15 1 1 2 0 0 1.53457 0.887646 4.32427 4.99998 1.7768 0. -1
 -15 1 1 2 0 0 -1.53457 -0.887646 -4.324 4.99975 1.7768 0. 1
</event>
<event>
 4 80 1 -1 -1 -1
 11 -1 0 0 0 0 0 0 4.99984 4.99984 0 0. 9.
 -11 -1 0 0 0 0 0 0 -5 5 0 0. 9.
 15 1 1 2 0 0 -3.45362 0.295033 3.13471 4.99987 1.7768 0. 1
 -15 1 1 2 0 0 3.45362 -0.295033 -3.13487 4.99997 1.7768 0. -1
</event>
<event>
 4 80 1 -1 -1 -1
 11 -1 0 0 0 0 0 0 5 5 0 0. 9.
 -11 -1 0 0 0 0 0 0 -5 5 0 0. 9.
 15 1 1 2 0 0 1.36798 1.03469 -4.34745 5 1.7768 0. -1
 -15 1 1 2 0 0 -1.36798 -1.03469 4.34745 5 1.7768 0. 1
</event>
<event>
 4 80 1 -1 -1 -1
 11 -1 0 0 0 0 0 0 4.40485 4.40485 0 0. 9.
 -11 -1 0 0 0 0 0 0 -4.99996 4.99996 0 0. 9.
 15 1 1 2 0 0 -2.72019 2.89896 1.45607 4.59144 1.7768 0. -1
 -15 1 1 2 0 0 2.72019 -2.89896 -2.05119 4.81337 1.7768 0. 1
</event>
<event>
 4 80 1 -1 -1 -1
 11 -1 0 0 0 0 0 0 4.99991 4.99991 0 0. 9.
 -11 -1 0 0 0 0 0 0 -5 5 0 0. 9.
 15 1 1 2 0 0 0.591696 4.35164 -1.59847 4.99997 1.7768 0. -1
 -15 1 1 2 0 0 -0.591696 -4.35164 1.59838 4.99994 1.7768 0. 1
</event>
<event>
 4 80 1 -1 -1 -1
 11 -1 0 0 0 0 0 0 4.61224 4.61224 0 0. 9.
 -11 -1 0 0 0 0 0 0 -5 5 0 0. 9.
 15 1 1 2 0 0 -3.32872 -2.5441 -1.72831 4.86802 1.7768 0. 1
 -15 1 1 2 0 0 3.32872 2.5441 1.34055 4.74422 1.7768 0. -1
</event>
<event>
 4 80 1 -1 -1 -1
 11 -1 0 0 0 0 0 0 5 5 0 0. 9.
 -11 -1 0 0 0 0 0 0 -4.99999 4.99999 0 0. 9.
 15 1 1 2 0 0 0.711174 -4.3637 1.51481 5 1.7768 0. -1
 -15 1 1 2 0 0 -0.711174 4.3637 -1.5148 5 1.7768 0. 1
</event>
<event>
 4 80 1 -1 -1 -1
 11 -1 0 0 0 0 0 0 4.9995 4.9995 0 0. 9.
 -11 -1 0 0 0 0 0 0 -5 5 0 0. 9.
 15 1 1 2 0 0 -2.29858 0.272179 -4.06008 4.99995 1.7768 0. -1
 -15 1 1 2 0 0 2.29858 -0.272179 4.05958 4.99955 1.7768 0. 1
</event>
<event>
 4 80 1 -1 -1 -1
 11 -1 0 0 0 0 0 0 5 5 0 0. 9.
 -11 -1 0 0 0 0 0 0 -4.99848 4.99848 0 0. 9.
 15 1 1 2 0 0 3.59337 -2.40927 1.76648 4.99951 1.7768 0. -1
 -15 1 1 2 0 0 -3.59337 2.40927 -1.76496 4.99897 1.7768 0. 1
</event>
<event>
 4 80 1 -1 -1 -1
 11 -1 0 0 0 0 0 0 5 5 0 0. 9.
 -11 -1 0 0 0 0 0 0 -5 5 0 0. 9.
 15 1 1 2 0 0 -2.08094 3.73335 -1.89052 5 1.7768 0. 1
 -15 1 1 2 0 0 2.08094 -3.73335 1.89052 5 1.7768 0. -1
</event>
<event>
 4 80 1 -1 -1 -1
 11 -1 0 0 0 0 0 0 5 5 0 0. 9.
 -11 -1 0 0 0 0 0 0 -2.51765 2.51765 0 0. 9.
 15 1 1 2 0 0 2.90732 -0.979495 1.09669 3.71111 1.7768 0. 1
 -15 1 1 2 0 0 -2.90732 0.979495 1.38567 3.80653 1.7768 0. -1
</event>
<event>
 4 80 1 -1 -1 -1
 11 -1 0 0 0 0 0 0 5 5 0 0. 9.
 -11 -1 0 0 0 0 0 0 -4.99999 4.99999 0 0. 9.
 15 1 1 2 0 0 1.86221 3.84412 1.89661 5 1.7768 0. 1
 -15 1 1 2 0 0 -1.86221 -3.84412 -1.89661 5 1.7768 0. -1
</event>
<event>
 4 80 1 -1 -1 -1
 11 -1 0 0 0 0 0 0 4.99998 4.99998 0 0. 9.
 -11 -1 0 0 0 0 0 0 -4.99983 4.99983 0 0. 9.
 15 1 1 2 0 0 2.77325 1.7967 3.30497 4.99996 1.7768 0. 1
 -15 1 1 2 0 0 -2.77325 -1.7967 -3.30482 4.99986 1.7768 0. -1
</event>
<event>
 4 80 1 -1 -1 -1
 11 -1 0 0 0 0 0 0 5 5 0 0. 9.
 -11 -1 0 0 0 0 0 0 -5 5 0 0. 9.
 15 1 1 2 0 0 -0.875689 3.38387 3.1024 5 1.7768 0. 1
 -15 1 1 2 0 0 0.875689 -3.38387 -3.1024 5 1.7768 0. -1
</event>
<event>
 4 80 1 -1 -1 -1
 11 -1 0 0 0 0 0 0 4.99977 4.99977 0 0. 9.
 -11 -1 0 0 0 0 0 0 -4.99678 4.99678 0 0. 9.
 15 1 1 2 0 0 3.28186 1.08613 3.14391 4.99921 1.7768 0. -1
 -15 1 1 2 0 0 -3.28186 -1.08613 -3.14092 4.99734 1.7768 0. 1
</event>
<event>
 4 80 1 -1 -1 -1
 11 -1 0 0 0 0 0 0 5 5 0 0. 9.
 -11 -1 0 0 0 0 0 0 -4.79668 4.79668 0 0. 9.
 15 1 1 2 0 0 -3.75527 -2.53958 0.625408 4.90921 1.7768 0. -1
 -15 1 1 2 0 0 3.75527 2.53958 -0.42209 4.88747 1.7768 0. 1
</event>
<event>
 4 80 1 -1 -1 -1
 11 -1 0 0 0 0 0 0 4.99999 4.99999 0 0. 9.
 -11 -1 0 0 0 0 0 0 -5 5 0 0. 9.
 15 1 1 2 0 0 3.77136 -0.4015 2.7309 4.99999 1.7768 0. 1
 -15 1 1 2 0 0 -3.77136 0.4015 -2.73091 5 1.7768 0. -1
</event>
<event>
 4 80 1 -1 -1 -1
 11 -1 0 0 0 0 0 0 4.86073 4.86073 0 0. 9.
 -11 -1 0 0 0 0 0 0 -5 5 0 0. 9.
 15 1 1 2 0 0 -4.47846 0.288725 -1.07269 4.94453 1.7768 0. -1
 -15 1 1 2 0 0 4.47846 -0.288725 0.933419 4.9162 1.7768 0. 1
</event>
<event>
 4 80 1 -1 -1 -1
 11 -1 0 0 0 0 0 0 5 5 0 0. 9.
 -11 -1 0 0 0 0 0 0 -4.91415 4.91415 0 0. 9.
 15 1 1 2 0 0 -1.84737 -4.18392 0.746572 4.96317 1.7768 0. -1
 -15 1 1 2 0 0 1.84737 4.18392 -0.660722 4.95098 1.7768 0. 1
</event>
<event>
 4 80 1 -1 -1 -1
 11 -1 0 0 0 0 0 0 5 5 0 0. 9.
 -11 -1 0 0 0 0 0 0 -5 5 0 0. 9.
 15 1 1 2 0 0 -2.43652 -3.37653 -2.12241 5 1.7768 0. 1
 -15 1 1 2 0 0 2.43652 3.37653 2.12241 5 1.7768 0. -1
</event>
<event>
 4 80 1 -1 -1 -1
 11 -1 0 0 0 0 0 0 4.51997 4.51997 0 0. 9.
 -11 -1 0 0 0 0 0 0 -5 5 0 0. 9.
 15 1 1 2 0 0 0.75706 1.64697 -4.26464 4.96292 1.7768 0. -1
 -15 1 1 2 0 0 -0.75706 -1.64697 3.78461 4.55705 1.7768 0. 1
</event>
<event>
 4 80 1 -1 -1 -1
 11 -1 0 0 0 0 0 0 5 5 0 0. 9.
 -11 -1 0 0 0 0 0 0 -5 5 0 0. 9.
 15 1 1 2 0 0 2.60608 1.22838 3.67991 5 1.7768 0. -1
 -15 1 1 2 0 0 -2.60608 -1.22838 -3.67991 5 1.7768 0. 1
</event>
<event>
 4 80 1 -1 -1 -1
 11 -1 0 0 0 0 0 0 5 5 0 0. 9.
 -11 -1 0 0 0 0 0 0 -4.99772 4.99772 0 0. 9.
 15 1 1 2 0 0 4.16469 -2.10466 -0.236766 4.9988 1.7768 0. 1
 -15 1 1 2 0 0 -4.16469 2.10466 0.239048 4.99891 1.7768 0. -1
</event>
<event>
 4 80 1 -1 -1 -1
 11 -1 0 0 0 0 0 0 5 5 0 0. 9.
 -11 -1 0 0 0 0 0 0 -5 5 0 0. 9.
 15 1 1 2 0 0 0.13461 -1.76822 4.32406 5 1.7768 0. 1
 -15 1 1 2 0 0 -0.13461 1.76822 -4.32406 5 1.7768 0. -1
</event>
<event>
 4 80 1 -1 -1 -1
 11 -1 0 0 0 0 0 0 4.99198 4.99198 0 0. 9.
 -11 -1 0 0 0 0 0 0 -5 5 0 0. 9.
 15 1 1 2 0 0 -2.96989 -3.44822 -1.04885 4.99683 1.7768 0. 1
 -15 1 1 2 0 0 2.96989 3.44822 1.04083 4.99515 1.7768 0. -1
</event>
<event>
 4 80 1 -1 -1 -1
 11 -1 0 0 0 0 0 0 4.99839 4.99839 0 0. 9.
 -11 -1 0 0 0 0 0 0 -5 5 0 0. 9.
 15 1 1 2 0 0 -1.57017 -3.3129 -2.89796 4.99966 1.7768 0. 1
 -15 1 1 2 0 0 1.57017 3.3129 2.89635 4.99873 1.7768 0. -1
</event>
<event>
 4 80 1 -1 -1 -1
 11 -1 0 0 0 0 0 0 5 5 0 0. 9.
 -11 -1 0 0 0 0 0 0 -5 5 0 0. 9.
 15 1 1 2 0 0 -1.1063 4.53976 0.0947567 5 1.7768 0. -1
 -15 1 1 2 0 0 1.1063 -4.53976 -0.0947567 5 1.7768 0. 1
</event>
<event>
 4 80 1 -1 -1 -1
 11 -1 0 0 0 0 0 0 5 5 0 0. 9.
 -11 -1 0 0 0 0 0 0 -5 5 0 0. 9.
 15 1 1 2 0 0 -0.434557 4.60195 0.689532 5 1.7768 0. -1
 -15 1 1 2 0 0 0.434557 -4.60195 -0.689532 5 1.7768 0. 1
</event>
<event>
 4 80 1 -1 -1 -1
 11 -1 0 0 0 0 0 0 4.96472 4.96472 0 0. 9.
 -11 -1 0 0 0 0 0 0 -5 5 0 0. 9.
 15 1 1 2 0 0 2.41424 -2.78251 -2.86283 4.99243 1.7768 0. 1
 -15 1 1 2 0 0 -2.41424 2.78251 2.82755 4.97229 1.7768 0. -1
</event>
<event>
 4 80 1 -1 -1 -1
 11 -1 0 0 0 0 0 0 3.98619 3.98619 0 0. 9.
 -11 -1 0 0 0 0 0 0 -5 5 0 0. 9.
 15 1 1 2 0 0 -3.08435 1.10866 1.96465 4.21426 1.7768 0. -1
 -15 1 1 2 0 0 3.08435 -1.10866 -2.97846 4.77193 1.7768 0. 1
</event>
<event>
 4 80 1 -1 -1 -1
 11 -1 0 0 0 0 0 0 5 5 0 0. 9.
 -11 -1 0 0 0 0 0 0 -5 5 0 0. 9.
 15 1 1 2 0 0 -3.7898 1.93618 1.93155 5 1.7768 0. 1
 -15 1 1 2 0 0 3.7898 -1.93618 -1.93155 5 1.7768 0. -1
</event>
<event>
 4 80 1 -1 -1 -1
 11 -1 0 0 0 0 0 0 3.61353 3.61353 0 0. 9.
 -11 -1 0 0 0 0 0 0 -5 5 0 0. 9.
 15 1 1 2 0 0 0.0450343 -1.78139 2.7776 3.74809 1.7768 0. 1
 -15 1 1 2 0 0 -0.0450343 1.78139 -4.16407 4.86544 1.7768 0. -1
</event>
<event>
 4 80 1 -1 -1 -1
 11 -1 0 0 0 0 0 0 5 5 0 0. 9.
 -11 -1 0 0 0 0 0 0 -5 5 0 0. 9.
 15 1 1 2 0 0 -3.81399 0.664444 -2.61806 5 1.7768 0. -1
 -15 1 1 2 0 0 3.81399 -0.664444 2.61806 5 1.7768 0. 1
</event>
<event>
 4 80 1 -1 -1 -1
 11 -1 0 0 0 0 0 0 4.55517 4.55517 0 0. 9.
 -11 -1 0 0 0 0 0 0 -4.92385 4.92385 0 0. 9.
 15 1 1 2 0 0 -2.90186 -0.112967 -3.4789 4.86765 1.7768 0. -1
 -15 1 1 2 0 0 2.90186 0.112967 3.11022 4.61137 1.7768 0. 1
</event>
<event>
 4 80 1 -1 -1 -1
 11 -1 0 0 0 0 0 0 5 5 0 0. 9.
 -11 -1 0 0 0 0 0 0 -5 5 0 0. 9.
 15 1 1 2 0 0 1.78002 2.00836 -3.82626 5 1.7768 0. -1
 -15 1 1 2 0 0 -1.78002 -2.00836 3.82626 5 1.7768 0. 1
</event>
<event>
 4 80 1 -1 -1 -1
 11 -1 0 0 0 0 0 0 5 5 0 0. 9.
 -11 -1 0 0 0 0 0 0 -5 5 0 0. 9.
 15 1 1 2 0 0 -3.30304 0.69724 -3.23203 5 1.7768 0. 1
 -15 1 1 2 0 0 3.30304 -0.69724 3.23203 5 1.7768 0. -1
</event>
<event>
 4 80 1 -1 -1 -1
 11 -1 0 0 0 0 0 0 5 5 0 0. 9.
 -11 -1 0 0 0 0 0 0 -5 5 0 0. 9.
 15 1 1 2 0 0 -2.20163 1.34431 3.89717 5 1.7768 0. -1
 -15 1 1 2 0 0 2.20163 -1.34431 -3.89717 5 1.7768 0. 1
</event>
<event>
 4 80 1 -1 -1 -1
 11 -1 0 0 0 0 0 0 4.36744 4.36744 0 0. 9.
 -11 -1 0 0 0 0 0 0 -5 5 0 0. 9.
 15 1 1 2 0 0 -3.73753 2.17033 -0.320843 4.68403 1.7768 0. 1
 -15 1 1 2 0 0 3.73753 -2.17033 -0.311721 4.68341 1.7768 0. -1
</event>
<event>
 4 80 1 -1 -1 -1
 11 -1 0 0 0 0 0 0 5 5 0 0. 9.
 -11 -1 0 0 0 0 0 0 -4.54115 4.54115 0 0. 9.
 15 1 1 2 0 0 2.21397 1.18378 -3.41416 4.59535 1.7768 0. -1
 -15 1 1 2 0 0 -2.21397 -1.18378 3.87301 4.9458 1.7768 0. 1
</event>
<event>
 4 80 1 -1 -1 -1
 11 -1 0 0 0 0 0 0 5 5 0 0. 9.
 -11 -1 0 0 0 0 0 0 -5 5 0 0. 9.
 15 1 1 2 0 0 3.84291 0.892404 2.50557 5 1.7768 0. 1
 -15 1 1 2 0 0 -3.84291 -0.892404 -2.50557 5 1.7768 0. -1
</event>
<event>
 4 80 1 -1 -1 -1
 11 -1 0 0 0 0 0 0 4.9997 4.9997 0 0. 9.
 -11 -1 0 0 0 0 0 0 -5 5 0 0. 9.
 15 1 1 2 0 0 -3.13331 -3.46519 -0.125109 4.99986 1.7768 0. -1
 -15 1 1 2 0 0 3.13331 3.46519 0.124812 4.99985 1.7768 0. 1
</event>
<event>
 4 80 1 -1 -1 -1
 11 -1 0 0 0 0 0 0 5 5 0 0. 9.
 -11 -1 0 0 0 0 0 0 -4.992 4.992 0 0. 9.
 15 1 1 2 0 0 -2.4347 1.96118 -3.46419 4.99323 1.7768 0. -1
 -15 1 1 2 0 0 2.4347 -1.96118 3.47218 4.99878 1.7768 0. 1
</event>
<event>
 4 80 1 -1 -1 -1
 11 -1 0 0 0 0 0 0 5 5 0 0. 9.
 -11 -1 0 0 0 0 0 0 -4.99696 4.99696 0 0. 9.
 15 1 1 2 0 0 3.32267 -0.100823 3.28432 4.99948 1.7768 0. 1
 -15 1 1 2 0 0 -3.32267 0.100823 -3.28127 4.99748 1.7768 0. -1
</event>
<event>
 4 80 1 -1 -1 -1
 11 -1 0 0 0 0 0 0 4.98882 4.98882 0 0. 9.
 -11 -1 0 0 0 0 0 0 -4.75201 4.75201 0 0. 9.
 15 1 1 2 0 0 1.31261 -2.0058 3.96701 4.96398 1.7768 0. 1
 -15 1 1 2 0 0 -1.31261 2.0058 -3.7302 4.77685 1.7768 0. -1
</event>
<event>
 4 80 1 -1 -1 -1
 11 -1 0 0 0 0 0 0 5 5 0 0. 9.
 -11 -1 0 0 0 0 0 0 -5 5 0 0. 9.
 15 1 1 2 0 0 2.65829 0.241888 3.83631 5 1.7768 0. -1
 -15 1 1 2 0 0 -2.65829 -0.241888 -3.83631 5 1.7768 0. 1
</event>
<event>
 4 80 1 -1 -1 -1
 11 -1 0 0 0 0 0 0 5 5 0 0. 9.
 -11 -1 0 0 0 0 0 0 -4.72217 4.72217 0 0. 9.
 15 1 1 2 0 0 4.13889 1.1009 -1.31452 4.81955 1.7768 0. -1
 -15 1 1 2 0 0 -4.13889 -1.1009 1.59235 4.90262 1.7768 0. 1
</event>
<event>
 4 80 1 -1 -1 -1
 11 -1 0 0 0 0 0 0 5 5 0 0. 9.
 -11 -1 0 0 0 0 0 0 -0.711668 0.711668 0 0. 9.
 15 1 1 2 0 0 -0.189528 0.469256 2.71964 3.2879 1.7768 0. 1
 -15 1 1 2 0 0 0.189528 -0.469256 1.56869 2.42377 1.7768 0. -1
</event>
<event>
 4 80 1 -1 -1 -1
 11 -1 0 0 0 0 0 0 5 5 0 0. 9.
 -11 -1 0 0 0 0 0 0 -4.25576 4.25576 0 0. 9.
 15 1 1 2 0 0 -1.95657 -2.55655 3.1663 4.85256 1.7768 0. -1
 -15 1 1 2 0 0 1.95657 2.55655 -2.42206 4.40321 1.7768 0. 1
</event>
<event>
 4 80 1 -1 -1 -1
 11 -1 0 0 0 0 0 0 3.82031 3.82031 0 0. 9.
 -11 -1 0 0 0 0 0 0 -4.99007 4.99007 0 0. 9.
 15 1 1 2 0 0 3.22222 2.34043 -0.800353 4.4338 1.7768 0. 1
 -15 1 1 2 0 0 -3.22222 -2.34043 -0.3694 4.37658 1.7768 0. -1
</event>
<event>
 4 80 1 -1 -1 -1
 11 -1 0 0 0 0 0 0 5 5 0 0. 9.
 -11 -1 0 0 0 0 0 0 -1.38809 1.38809 0 0. 9.
 15 1 1 2 0 0 -1.15882 -0.139677 -0.0802407 2.12757 1.7768 0. -1
 -15 1 1 2 0 0 1.15882 0.139677 3.69215 4.26052 1.7768 0. 1
</event>
<event>
 4 80 1 -1 -1 -1
 11 -1 0 0 0 0 0 0 3.37083 3.37083 0 0. 9.
 -11 -1 0 0 0 0 0 0 -1.50315 1.50315 0 0. 9.
 15 1 1 2 0 0 0.835088 0.329031 2.07113 2.8728 1.7768 0. 1
 -15 1 1 2 0 0 -0.835088 -0.329031 -0.203457 2.00119 1.7768 0. -1
</event>
<event>
 4 80 1 -1 -1 -1
 11 -1 0 0 0 0 0 0 5 5 0 0. 9.
 -11 -1 0 0 0 0 0 0 -5 5 0 0. 9.
 15 1 1 2 0 0 -2.46319 -1.4143 -3.71143 5 1.7768 0. -1
 -15 1 1 2 0 0 2.46319 1.4143 3.71143 5 1.7768 0. 1
</event>
<event>
 4 80 1 -1 -1 -1
 11 -1 0 0 0 0 0 0 5 5 0 0. 9.
 -11 -1 0 0 0 0 0 0 -5 5 0 0. 9.
 15 1 1 2 0 0 -1.3595 3.88756 -2.20927 5 1.7768 0. 1
 -15 1 1 2 0 0 1.3595 -3.88756 2.20927 5 1.7768 0. -1
</event>
<event>
 4 80 1 -1 -1 -1
 11 -1 0 0 0 0 0 0 5 5 0 0. 9.
 -11 -1 0 0 0 0 0 0 -5 5 0 0. 9.
 15 1 1 2 0 0 3.22922 -3.27748 -0.82009 5 1.7768 0. 1
 -15 1 1 2 0 0 -3.22922 3.27748 0.82009 5 1.7768 0. -1
</event>
<event>
 4 80 1 -1 -1 -1
 11 -1 0 0 0 0 0 0 5 5 0 0. 9.
 -11 -1 0 0 0 0 0 0 -5 5 0 0. 9.
 15 1 1 2 0 0 3.40612 3.045 -0.984187 5 1.7768 0. 1
 -15 1 1 2 0 0 -3.40612 -3.045 0.984187 5 1.7768 0. -1
</event>
<event>
 4 80 1 -1 -1 -1
 11 -1 0 0 0 0 0 0 5 5 0 0. 9.
 -11 -1 0 0 0 0 0 0 -0.807986 0.807986 0 0. 9.
 15 1 1 2 0 0 0.189243 -0.862351 1.6329 2.56974 1.7768 0. 1
 -15 1 1 2 0 0 -0.189243 0.862351 2.55911 3.23825 1.7768 0. -1
</event>
<event>
 4 80 1 -1 -1 -1
 11 -1 0 0 0 0 0 0 4.8272 4.8272 0 0. 9.
 -11 -1 0 0 0 0 0 0 -4.99999 4.99999 0 0. 9.
 15 1 1 2 0 0 -0.423101 2.78348 -3.69964 4.97713 1.7768 0. 1
 -15 1 1 2 0 0 0.423101 -2.78348 3.52684 4.85006 1.7768 0. -1
</event>
<event>
 4 80 1 -1 -1 -1
 11 -1 0 0 0 0 0 0 5 5 0 0. 9.
 -11 -1 0 0 0 0 0 0 -4.99919 4.99919 0 0. 9.
 15 1 1 2 0 0 3.58227 2.99687 0.156387 4.99961 1.7768 0. -1
 -15 1 1 2 0 0 -3.58227 -2.99687 -0.155579 4.99958 1.7768 0. 1
</event>
<event>
 4 80 1 -1 -1 -1
 11 -1 0 0 0 0 0 0 4.99724 4.99724 0 0. 9.
 -11 -1 0 0 0 0 0 0 -4.83204 4.83204 0 0. 9.
 15 1 1 2 0 0 0.321727 -0.655153 -4.44092 4.83862 1.7768 0. -1
 -15 1 1 2 0 0 -0.321727 0.655153 4.60612 4.99067 1.7768 0. 1
</event>
<event>
 4 80 1 -1 -1 -1
 11 -1 0 0 0 0 0 0 5 5 0 0. 9.
 -11 -1 0 0 0 0 0 0 -4.44445 4.44445 0 0. 9.
 15 1 1 2 0 0 0.660511 0.721684 -3.98488 4.47148 1.7768 0. -1
 -15 1 1 2 0 0 -0.660511 -0.721684 4.54044 4.97297 1.7768 0. 1
</event>
<event>
 4 80 1 -1 -1 -1
 11 -1 0 0 0 0 0 0 4.99996 4.99996 0 0. 9.
 -11 -1 0 0 0 0 0 0 -5 5 0 0. 9.
 15 1 1 2 0 0 -1.32733 4.40647 -0.814422 4.99998 1.7768 0. -1
 -15 1 1 2 0 0 1.32733 -4.40647 0.814379 4.99997 1.7768 0. 1
</event>
<event>
 4 80 1 -1 -1 -1
 11 -1 0 0 0 0 0 0 5 5 0 0. 9.
 -11 -1 0 0 0 0 0 0 -4.99983 4.99983 0 0. 9.
 15 1 1 2 0 0 -2.87071 -3.50687 -1.14111 4.9999 1.7768 0. -1
 -15 1 1 2 0 0 2.87071 3.50687 1.14128 4.99993 1.7768 0. 1
</event>
<event>
 4 80 1 -1 -1 -1
 11 -1 0 0 0 0 0 0 4.63427 4.63427 0 0. 9.
 -11 -1 0 0 0 0 0 0 -5 5 0 0. 9.
 15 1 1 2 0 0 2.6375 -2.07357 2.77858 4.70472 1.7768 0. 1
 -15 1 1 2 0 0 -2.6375 2.07357 -3.14431 4.92956 1.7768 0. -1
</event>
<event>
 4 80 1 -1 -1 -1
 11 -1 0 0 0 0 0 0 5 5 0 0. 9.
 -11 -1 0 0 0 0 0 0 -5 5 0 0. 9.
 15 1 1 2 0 0 -0.989628 2.08315 4.0649 5 1.7768 0. -1
 -15 1 1 2 0 0 0.989628 -2.08315 -4.0649 5 1.7768 0. 1
</event>
<event>
 4 80 1 -1 -1 -1
 11 -1 0 0 0 0 0 0 4.96346 4.96346 0 0. 9.
 -11 -1 0 0 0 0 0 0 -5 5 0 0. 9.
 15 1 1 2 0 0 1.43016 -0.462332 -4.42289 4.99788 1.7768 0. 1
 -15 1 1 2 0 0 -1.43016 0.462332 4.38636 4.96558 1.7768 0. -1
</event>
<event>
 4 80 1 -1 -1 -1
 11 -1 0 0 0 0 0 0 2.34088 2.34088 0 0. 9.
 -11 -1 0 0 0 0 0 0 -5 5 0 0. 9.
 15 1 1 2 0 0 -2.08897 -0.113334 -3.52041 4.46404 1.7768 0. 1
 -15 1 1 2 0 0 2.08897 0.113334 0.861289 2.87684 1.7768 0. -1
</event>
<event>
 4 80 1 -1 -1 -1
 11 -1 0 0 0 0 0 0 4.99912 4.99912 0 0. 9.
 -11 -1 0 0 0 0 0 0 -5 5 0 0. 9.
 15 1 1 2 0 0 2.50739 -1.29609 -3.72482 4.99989 1.7768 0. 1
 -15 1 1 2 0 0 -2.50739 1.29609 3.72395 4.99923 1.7768 0. -1
</event>
<event>
 4 80 1 -1 -1 -1
 11 -1 0 0 0 0 0 0 5 5 0 0. 9.
 -11 -1 0 0 0 0 0 0 -4.00793 4.00793 0 0. 9.
 15 1 1 2 0 0 1.03438 2.98445 -2.1478 4.2128 1.7768 0. -1
 -15 1 1 2 0 0 -1.03438 -2.98445 3.13987 4.79514 1.7768 0. 1
</event>
<event>
 4 80 1 -1 -1 -1
 11 -1 0 0 0 0 0 0 5 5 0 0. 9.
 -11 -1 0 0 0 0 0 0 -4.99998 4.99998 0 0. 9.
 15 1 1 2 0 0 -3.5129 0.371644 3.06001 5 1.7768 0. -1
 -15 1 1 2 0 0 3.5129 -0.371644 -3.05998 4.99998 1.7768 0. 1
</event>
<event>
 4 80 1 -1 -1 -1
 11 -1 0 0 0 0 0 0 4.99998 4.99998 0 0. 9.
 -11 -1 0 0 0 0 0 0 -5 5 0 0. 9.
 15 1 1 2 0 0 -1.28561 3.45841 2.86856 4.99998 1.7768 0. 1
 -15 1 1 2 0 0 1.28561 -3.45841 -2.86859 4.99999 1.7768 0. -1
</event>
<event>
 4 80 1 -1 -1 -1
 11 -1 0 0 0 0 0 0 4.99991 4.99991 0 0. 9.
 -11 -1 0 0 0 0 0 0 -5 5 0 0. 9.
 15 1 1 2 0 0 -0.755876 2.80257 -3.66284 4.99999 1.7768 0. 1
 -15 1 1 2 0 0 0.755876 -2.80257 3.66275 4.99992 1.7768 0. -1
</event>
<event>
 4 80 1 -1 -1 -1
 11 -1 0 0 0 0 0 0 1.0324 1.0324 0 0. 9.
 -11 -1 0 0 0 0 0 0 -4.94504 4.94504 0 0. 9.
 15 1 1 2 0 0 0.0874677 -1.1732 -2.94924 3.63865 1.7768 0. 1
 -15 1 1 2 0 0 -0.0874677 1.1732 -0.963405 2.33879 1.7768 0. -1
</event>
<event>
 4 80 1 -1 -1 -1
 11 -1 0 0 0 0 0 0 5 5 0 0. 9.
 -11 -1 0 0 0 0 0 0 -5 5 0 0. 9.
 15 1 1 2 0 0 -0.934638 0.309369 -4.5687 5 1.7768 0. 1
 -15 1 1 2 0 0 0.934638 -0.309369 4.5687 5 1.7768 0. -1
</event>
<event>
 4 80 1 -1 -1 -1
 11 -1 0 0 0 0 0 0 5 5 0 0. 9.
 -11 -1 0 0 0 0 0 0 -5 5 0 0. 9.
 15 1 1 2 0 0 2.94663 0.595784 -3.57836 5 1.7768 0. -1
 -15 1 1 2 0 0 -2.94663 -0.595784 3.57836 5 1.7768 0. 1
</event>
<event>
 4 80 1 -1 -1 -1
 11 -1 0 0 0 0 0 0 5 5 0 0. 9.
 -11 -1 0 0 0 0 0 0 -5 5 0 0. 9.
 15 1 1 2 0 0 4.20533 1.18005 1.66282 5 1.7768 0. -1
 -15 1 1 2 0 0 -4.20533 -1.18005 -1.66282 5 1.7768 0. 1
</event>
<event>
 4 80 1 -1 -1 -1
 11 -1 0 0 0 0 0 0 5 5 0 0. 9.
 -11 -1 0 0 0 0 0 0 -5 5 0 0. 9.
 15 1 1 2 0 0 0.132237 -1.09624 4.54126 5 1.7768 0. 1
 -15 1 1 2 0 0 -0.132237 1.09624 -4.54126 5 1.7768 0. -1
</event>
<event>
 4 80 1 -1 -1 -1
 11 -1 0 0 0 0 0 0 4.99999 4.99999 0 0. 9.
 -11 -1 0 0 0 0 0 0 -4.99497 4.99497 0 0. 9.
 15 1 1 2 0 0 -2.76948 0.36034 3.74647 4.99936 1.7768 0. 1
 -15 1 1 2 0 0 2.76948 -0.36034 -3.74145 4.9956 1.7768 0. -1
</event>
<event>
 4 80 1 -1 -1 -1
 11 -1 0 0 0 0 0 0 4.99999 4.99999 0 0. 9.
 -11 -1 0 0 0 0 0 0 -5 5 0 0. 9.
 15 1 1 2 0 0 -2.84073 1.12074 -3.53786 5 1.7768 0. 1
 -15 1 1 2 0 0 2.84073 -1.12074 3.53785 4.99999 1.7768 0. -1
</event>
<event>
 4 80 1 -1 -1 -1
 11 -1 0 0 0 0 0 0 5 5 0 0. 9.
 -11 -1 0 0 0 0 0 0 -4.99999 4.99999 0 0. 9.
 15 1 1 2 0 0 3.12453 2.95358 -1.83191 4.99999 1.7768 0. 1
 -15 1 1 2 0 0 -3.12453 -2.95358 1.83192 5 1.7768 0. -1
</event>
<event>
 4 80 1 -1 -1 -1
 11 -1 0 0 0 0 0 0 4.99991 4.99991 0 0. 9.
 -11 -1 0 0 0 0 0 0 -5 5 0 0. 9.
 15 1 1 2 0 0 2.26765 3.36735 2.31524 4.99994 1.7768 0. -1
 -15 1 1 2 0 0 -2.26765 -3.36735 -2.31533 4.99998 1.7768 0. 1
</event>
<event>
 4 80 1 -1 -1 -1
 11 -1 0 0 0 0 0 0 4.9999 4.9999 0 0. 9.
 -11 -1 0 0 0 0 0 0 -5 5 0 0. 9.
 15 1 1 2 0 0 2.13277 4.10623 -0.657236 4.99996 1.7768 0. 1
 -15 1 1 2 0 0 -2.13277 -4.10623 0.657138 4.99994 1.7768 0. -1
</event>
<event>
 4 80 1 -1 -1 -1
 11 -1 0 0 0 0 0 0 5 5 0 0. 9.
 -11 -1 0 0 0 0 0 0 -4.05764 4.05764 0 0. 9.
 15 1 1 2 0 0 3.4512 0.66521 2.66878 4.75746 1.7768 0. -1
 -15 1 1 2 0 0 -3.4512 -0.66521 -1.72641 4.30018 1.7768 0. 1
</event>
<event>
 4 80 1 -1 -1 -1
 11 -1 0 0 0 0 0 0 5 5 0 0. 9.
 -11 -1 0 0 0 0 0 0 -4.86743 4.86743 0 0. 9.
 15 1 1 2 0 0 0.999251 1.60093 4.26404 4.99011 1.7768 0. -1
 -15 1 1 2 0 0 -0.999251 -1.60093 -4.13146 4.87731 1.7768 0. 1
</event>
<event>
 4 80 1 -1 -1 -1
 11 -1 0 0 0 0 0 0 5 5 0 0. 9.
 -11 -1 0 0 0 0 0 0 -5 5 0 0. 9.
 15 1 1 2 0 0 1.17278 4.28945 1.43787 5 1.7768 0. -1
 -15 1 1 2 0 0 -1.17278 -4.28945 -1.43787 5 1.7768 0. 1
</event>
<event>
 4 80 1 -1 -1 -1
 11 -1 0 0 0 0 0 0 4.99921 4.99921 0 0. 9.
 -11 -1 0 0 0 0 0 0 -5 5 0 0. 9.
 15 1 1 2 0 0 -2.69716 -2.97273 2.39262 4.99941 1.7768 0. 1
 -15 1 1 2 0 0 2.69716 2.97273 -2.39341 4.99979 1.7768 0. -1
</event>
<event>
 4 80 1 -1 -1 -1
 11 -1 0 0 0 0 0 0 4.9492 4.9492 0 0. 9.
 -11 -1 0 0 0 0 0 0 -4.15587 4.15587 0 0. 9.
 15 1 1 2 0 0 -1.59591 -3.37246 -1.47865 4.38914 1.7768 0. -1
 -15 1 1 2 0 0 1.59591 3.37246 2.27199 4.71593 1.7768 0. 1
</event>
<event>
 4 80 1 -1 -1 -1
 11 -1 0 0 0 0 0 0 3.58826 3.58826 0 0. 9.
 -11 -1 0 0 0 0 0 0 -5 5 0 0. 9.
 15 1 1 2 0 0 -0.834765 2.50472 -3.53961 4.75994 1.7768 0. -1
 -15 1 1 2 0 0 0.834765 -2.50472 2.12787 3.82832 1.7768 0. 1
</event>
<event>
 4 80 1 -1 -1 -1
 11 -1 0 0 0 0 0 0 4.99993 4.99993 0 0. 9.
 -11 -1 0 0 0 0 0 0 -5 5 0 0. 9.
 15 1 1 2 0 0 -3.98286 1.95004 1.47512 4.99996 1.7768 0. -1
 -15 1 1 2 0 0 3.98286 -1.95004 -1.47519 4.99998 1.7768 0. 1
</event>
<event>
 4 80 1 -1 -1 -1
 11 -1 0 0 0 0 0 0 4.99954 4.99954 0 0. 9.
 -11 -1 0 0 0 0 0 0 -5 5 0 0. 9.
 15 1 1 2 0 0 -0.431639 -2.76047 3.74589 4.9996 1.7768 0. -1
 -15 1 1 2 0 0 0.431639 2.76047 -3.74635 4.99994 1.7768 0. 1
</event>
<event>
 4 80 1 -1 -1 -1
 11 -1 0 0 0 0 0 0 5 5 0 0. 9.
 -11 -1 0 0 0 0 0 0 -5 5 0 0. 9.
 15 1 1 2 0 0 -1.75 1.3006 4.13379 5 1.7768 0. -1
 -15 1 1 2 0 0 1.75 -1.3006 -4.13379 5 1.7768 0. 1
</event>
<event>
 4 80 1 -1 -1 -1
 11 -1 0 0 0 0 0 0 5 5 0 0. 9.
 -11 -1 0 0 0 0 0 0 -5 5 0 0. 9.
 15 1 1 2 0 0 -0.461608 0.370347 -4.63595 5 1.7768 0. -1
 -15 1 1 2 0 0 0.461608 -0.370347 4.63595 5 1.7768 0. 1
</event>
<event>
 4 80 1 -1 -1 -1
 11 -1 0 0 0 0 0 0 3.0664 3.0664 0 0. 9.
 -11 -1 0 0 0 0 0 0 -4.65529 4.65529 0 0. 9.
 15 1 1 2 0 0 -2.56876 1.88536 -1.79783 4.06731 1.7768 0. 1
 -15 1 1 2 0 0 2.56876 -1.88536 0.208932 3.65438 1.7768 0. -1
</event>
<event>
 4 80 1 -1 -1 -1
 11 -1 0 0 0 0 0 0 4.90122 4.90122 0 0. 9.
 -11 -1 0 0 0 0 0 0 -5 5 0 0. 9.
 15 1 1 2 0 0 2.06815 -0.150473 -4.17858 4.99181 1.7768 0. -1
 -15 1 1 2 0 0 -2.06815 0.150473 4.0798 4.90942 1.7768 0. 1
</event>
<event>
 4 80 1 -1 -1 -1
 11 -1 0 0 0 0 0 0 4.99876 4.99876 0 0. 9.
 -11 -1 0 0 0 0 0 0 -5 5 0 0. 9.
 15 1 1 2 0 0 0.271627 2.95304 -3.61197 4.99983 1.7768 0. -1
 -15 1 1 2 0 0 -0.271627 -2.95304 3.61074 4.99893 1.7768 0. 1
</event>
<event>
 4 80 1 -1 -1 -1
 11 -1 0 0 0 0 0 0 4.94596 4.94596 0 0. 9.
 -11 -1 0 0 0 0 0 0 -5 5 0 0. 9.
 15 1 1 2 0 0 3.08437 3.45742 0.297026 4.97122 1.7768 0. 1
 -15 1 1 2 0 0 -3.08437 -3.45742 -0.351066 4.97474 1.7768 0. -1
</event>
<event>
 4 80 1 -1 -1 -1
 11 -1 0 0 0 0 0 0 4.91524 4.91524 0 0. 9.
 -11 -1 0 0 0 0 0 0 -4.92275 4.92275 0 0. 9.
 15 1 1 2 0 0 -3.81553 -0.00815769 -2.54943 4.92094 1.7768 0. 1
 -15 1 1 2 0 0 3.81553 0.00815769 2.54193 4.91705 1.7768 0. -1
</event>
<event>
 4 80 1 -1 -1 -1
 11 -1 0 0 0 0 0 0 4.998 4.998 0 0. 9.
 -11 -1 0 0 0 0 0 0 -2.84442 2.84442 0 0. 9.
 15 1 1 2 0 0 -3.15728 -0.959352 0.64813 3.8035 1.7768 0. -1
 -15 1 1 2 0 0 3.15728 0.959352 1.50545 4.03892 1.7768 0. 1
</event>
<event>
 4 80 1 -1 -1 -1
 11 -1 0 0 0 0 0 0 5 5 0 0. 9.
 -11 -1 0 0 0 0 0 0 -4.99999 4.99999 0 0. 9.
 15 1 1 2 0 0 -2.3865 -3.70341 1.55936 5 1.7768 0. 1
 -15 1 1 2 0 0 2.3865 3.70341 -1.55935 4.99999 1.7768 0. -1
</event>
<event>
 4 80 1 -1 -1 -1
 11 -1 0 0 0 0 0 0 5 5 0 0. 9.
 -11 -1 0 0 0 0 0 0 -4.99993 4.99993 0 0. 9.
 15 1 1 2 0 0 -2.04377 0.555857 4.16608 4.99999 1.7768 0. -1
 -15 1 1 2 0 0 2.04377 -0.555857 -4.16601 4.99994 1.7768 0. 1
</event>
<event>
 4 80 1 -1 -1 -1
 11 -1 0 0 0 0 0 0 5 5 0 0. 9.
 -11 -1 0 0 0 0 0 0 -5 5 0 0. 9.
 15 1 1 2 0 0 -3.77434 -0.123603 -2.75343 5 1.7768 0. -1
 -15 1 1 2 0 0 3.77434 0.123603 2.75343 5 1.7768 0. 1
</event>
<event>
 4 80 1 -1 -1 -1
 11 -1 0 0 0 0 0 0 5 5 0 0. 9.
 -11 -1 0 0 0 0 0 0 -1.42107 1.42107 0 0. 9.
 15 1 1 2 0 0 -0.680667 -1.49301 0.440056 2.45841 1.7768 0. 1
 -15 1 1 2 0 0 0.680667 1.49301 3.13888 3.96266 1.7768 0. -1
</event>
<event>
 4 80 1 -1 -1 -1
 11 -1 0 0 0 0 0 0 5 5 0 0. 9.
 -11 -1 0 0 0 0 0 0 -5 5 0 0. 9.
 15 1 1 2 0 0 3.04174 3.2102 1.51153 5 1.7768 0. 1
 -15 1 1 2 0 0 -3.04174 -3.2102 -1.51153 5 1.7768 0. -1
</event>
<event>
 4 80 1 -1 -1 -1
 11 -1 0 0 0 0 0 0 5 5 0 0. 9.
 -11 -1 0 0 0 0 0 0 -5 5 0 0. 9.
 15 1 1 2 0 0 -0.735564 1.18252 4.46126 5 1.7768 0. -1
 -15 1 1 2 0 0 0.735564 -1.18252 -4.46126 5 1.7768 0. 1
</event>
<event>
 4 80 1 -1 -1 -1
 11 -1 0 0 0 0 0 0 5 5 0 0. 9.
 -11 -1 0 0 0 0 0 0 -4.99794 4.99794 0 0. 9.
 15 1 1 2 0 0 -1.94984 -1.21256 -4.06834 4.99813 1.7768 0. -1
 -15 1 1 2 0 0 1.94984 1.21256 4.0704 4.99981 1.7768 0. 1
</event>
<event>
 4 80 1 -1 -1 -1
 11 -1 0 0 0 0 0 0 4.95109 4.95109 0 0. 9.
 -11 -1 0 0 0 0 0 0 -4.16731 4.16731 0 0. 9.
 15 1 1 2 0 0 -3.42138 -2.39836 0.522708 4.57044 1.7768 0. -1
 -15 1 1 2 0 0 3.42138 2.39836 0.261066 4.54795 1.7768 0. 1
</event>
<event>
 4 80 1 -1 -1 -1
 11 -1 0 0 0 0 0 0 5 5 0 0. 9.
 -11 -1 0 0 0 0 0 0 -5 5 0 0. 9.
 15 1 1 2 0 0 -0.19324 -3.52817 -3.05891 5 1.7768 0. 1
 -15 1 1 2 0 0 0.19324 3.52817 3.05891 5 1.7768 0. -1
</event>
<event>
 4 80 1 -1 -1 -1
 11 -1 0 0 0 0 0 0 5 5 0 0. 9.
 -11 -1 0 0 0 0 0 0 -4.99617 4.99617 0 0. 9.
 15 1 1 2 0 0 3.68121 -2.83274 0.49931 4.99827 1.7768 0. 1
 -15 1 1 2 0 0 -3.68121 2.83274 -0.495478 4.99789 1.7768 0. -1
</event>
<event>
 4 80 1 -1 -1 -1
 11 -1 0 0 0 0 0 0 4.98337 4.98337 0 0. 9.
 -11 -1 0 0 0 0 0 0 -5 5 0 0. 9.
 15 1 1 2 0 0 -0.858962 4.01214 -2.22733 4.99538 1.7768 0. -1
 -15 1 1 2 0 0 0.858962 -4.01214 2.2107 4.98799 1.7768 0. 1
</event>
<event>
 4 80 1 -1 -1 -1
 11 -1 0 0 0 0 0 0 4.99998 4.99998 0 0. 9.
 -11 -1 0 0 0 0 0 0 -4.93554 4.93554 0 0. 9.
 15 1 1 2 0 0 4.30383 1.24016 -1.17567 4.95993 1.7768 0. -1
 -15 1 1 2 0 0 -4.30383 -1.24016 1.2401 4.97559 1.7768 0. 1
</event>
<event>
 4 80 1 -1 -1 -1
 11 -1 0 0 0 0 0 0 4.08793 4.08793 0 0. 9.
 -11 -1 0 0 0 0 0 0 -5 5 0 0. 9.
 15 1 1 2 0 0 -3.61913 0.56036 1.52114 4.34554 1.7768 0. 1
 -15 1 1 2 0 0 3.61913 -0.56036 -2.4332 4.74239 1.7768 0. -1
</event>
<event>
 4 80 1 -1 -1 -1
 11 -1 0 0 0 0 0 0 4.12197 4.12197 0 0. 9.
 -11 -1 0 0 0 0 0 0 -4.80554 4.80554 0 0. 9.
 15 1 1 2 0 0 1.8555 2.84946 1.92057 4.29053 1.7768 0. 1
 -15 1 1 2 0 0 -1.8555 -2.84946 -2.60414 4.63698 1.7768 0. -1
</event>
<event>
 4 80 1 -1 -1 -1
 11 -1 0 0 0 0 0 0 5 5 0 0. 9.
 -11 -1 0 0 0 0 0 0 -4.99511 4.99511 0 0. 9.
 15 1 1 2 0 0 4.6517 -0.389343 -0.164699 4.99748 1.7768 0. -1
 -15 1 1 2 0 0 -4.6517 0.389343 0.169585 4.99764 1.7768 0. 1
</event>
<event>
 4 80 1 -1 -1 -1
 11 -1 0 0 0 0 0 0 4.97349 4.97349 0 0. 9.
 -11 -1 0 0 0 0 0 0 -4.9992 4.9992 0 0. 9.
 15 1 1 2 0 0 -3.49724 1.20796 2.81839 4.97905 1.7768 0. 1
 -15 1 1 2 0 0 3.49724 -1.20796 -2.8441 4.99364 1.7768 0. -1
</event>
<event>
 4 80 1 -1 -1 -1
 11 -1 0 0 0 0 0 0 4.99999 4.99999 0 0. 9.
 -11 -1 0 0 0 0 0 0 -2.23246 2.23246 0 0. 9.
 15 1 1 2 0 0 -0.857479 0.178524 -1.52809 2.50199 1.7768 0. -1
 -15 1 1 2 0 0 0.857479 -0.178524 4.29562 4.73046 1.7768 0. 1
</event>
<event>
 4 80 1 -1 -1 -1
 11 -1 0 0 0 0 0 0 4.85524 4.85524 0 0. 9.
 -11 -1 0 0 0 0 0 0 -5 5 0 0. 9.
 15 1 1 2 0 0 -1.17261 -2.80849 3.37123 4.87704 1.7768 0. 1
 -15 1 1 2 0 0 1.17261 2.80849 -3.51599 4.9782 1.7768 0. -1
</event>
<event>
 4 80 1 -1 -1 -1
 11 -1 0 0 0 0 0 0 5 5 0 0. 9.
 -11 -1 0 0 0 0 0 0 -4.98721 4.98721 0 0. 9.
 15 1 1 2 0 0 1.63967 1.38177 4.15134 4.99891 1.7768 0. -1
 -15 1 1 2 0 0 -1.63967 -1.38177 -4.13855 4.9883 1.7768 0. 1
</event>
<event>
 4 80 1 -1 -1 -1
 11 -1 0 0 0 0 0 0 5 5 0 0. 9.
 -11 -1 0 0 0 0 0 0 -4.24139 4.24139 0 0. 9.
 15 1 1 2 0 0 3.42336 -0.487962 2.8558 4.82399 1.7768 0. -1
 -15 1 1 2 0 0 -3.42336 0.487962 -2.09719 4.4174 1.7768 0. 1
</event>
<event>
 4 80 1 -1 -1 -1
 11 -1 0 0 0 0 0 0 5 5 0 0. 9.
 -11 -1 0 0 0 0 0 0 -5 5 0 0. 9.
 15 1 1 2 0 0 -1.96032 3.18231 2.80577 5 1.7768 0. 1
 -15 1 1 2 0 0 1.96032 -3.18231 -2.80577 5 1.7768 0. -1
</event>
<event>
 4 80 1 -1 -1 -1
 11 -1 0 0 0 0 0 0 5 5 0 0. 9.
 -11 -1 0 0 0 0 0 0 -5 5 0 0. 9.
 15 1 1 2 0 0 2.51431 3.91322 -0.455217 5 1.7768 0. -1
 -15 1 1 2 0 0 -2.51431 -3.91322 0.455218 5 1.7768 0. 1
</event>
<event>
 4 80 1 -1 -1 -1
 11 -1 0 0 0 0 0 0 5 5 0 0. 9.
 -11 -1 0 0 0 0 0 0 -5 5 0 0. 9.
 15 1 1 2 0 0 -2.31374 -3.32817 -2.32641 5 1.7768 0. 1
 -15 1 1 2 0 0 2.31374 3.32817 2.32641 5 1.7768 0. -1
</event>
<event>
 4 80 1 -1 -1 -1
 11 -1 0 0 0 0 0 0 3.78705 3.78705 0 0. 9.
 -11 -1 0 0 0 0 0 0 -4.99949 4.99949 0 0. 9.
 15 1 1 2 0 0 0.0749598 -0.127361 -4.61366 4.94625 1.7768 0. -1
 -15 1 1 2 0 0 -0.0749598 0.127361 3.40121 3.84029 1.7768 0. 1
</event>
<event>
 4 80 1 -1 -1 -1
 11 -1 0 0 0 0 0 0 5 5 0 0. 9.
 -11 -1 0 0 0 0 0 0 -1.92147 1.92147 0 0. 9.
 15 1 1 2 0 0 1.00647 -0.491948 4.084 4.59258 1.7768 0. -1
 -15 1 1 2 0 0 -1.00647 0.491948 -1.00548 2.32888 1.7768 0. 1
</event>
<event>
 4 80 1 -1 -1 -1
 11 -1 0 0 0 0 0 0 5 5 0 0. 9.
 -11 -1 0 0 0 0 0 0 -5 5 0 0. 9.
 15 1 1 2 0 0 -1.10241 1.48551 4.29188 5 1.7768 0. 1
 -15 1 1 2 0 0 1.10241 -1.48551 -4.29188 5 1.7768 0. -1
</event>
<event>
 4 80 1 -1 -1 -1
 11 -1 0 0 0 0 0 0 4.99757 4.99757 0 0. 9.
 -11 -1 0 0 0 0 0 0 -5 5 0 0. 9.
 15 1 1 2 0 0 -3.20254 -0.42494 -3.37661 4.9996 1.7768 0. -1
 -15 1 1 2 0 0 3.20254 0.42494 3.37418 4.99796 1.7768 0. 1
</event>
<event>
 4 80 1 -1 -1 -1
 11 -1 0 0 0 0 0 0 5 5 0 0. 9.
 -11 -1 0 0 0 0 0 0 -4.85741 4.85741 0 0. 9.
 15 1 1 2 0 0 -0.912693 1.50733 4.31724 4.99012 1.7768 0. 1
 -15 1 1 2 0 0 0.912693 -1.50733 -4.17465 4.86728 1.7768 0. -1
</event>
<event>
 4 80 1 -1 -1 -1
 11 -1 0 0 0 0 0 0 5 5 0 0. 9.
 -11 -1 0 0 0 0 0 0 -5 5 0 0. 9.
 15 1 1 2 0 0 -2.46251 -2.85888 2.75774 5 1.7768 0. -1
 -15 1 1 2 0 0 2.46251 2.85888 -2.75774 5 1.7768 0. 1
</event>
<event>
 4 80 1 -1 -1 -1
 11 -1 0 0 0 0 0 0 5 5 0 0. 9.
 -11 -1 0 0 0 0 0 0 -5 5 0 0. 9.
 15 1 1 2 0 0 -1.44392 -2.25857 -3.82834 5 1.7768 0. 1
 -15 1 1 2 0 0 1.44392 2.25857 3.82834 5 1.7768 0. -1
</event>
<event>
 4 80 1 -1 -1 -1
 11 -1 0 0 0 0 0 0 5 5 0 0. 9.
 -11 -1 0 0 0 0 0 0 -4.99992 4.99992 0 0. 9.
 15 1 1 2 0 0 -0.61085 3.74613 -2.72673 4.99994 1.7768 0. 1
 -15 1 1 2 0 0 0.61085 -3.74613 2.72681 4.99998 1.7768 0. -1
</event>
<event>
 4 80 1 -1 -1 -1
 11 -1 0 0 0 0 0 0 4.99776 4.99776 0 0. 9.
 -11 -1 0 0 0 0 0 0 -5 5 0 0. 9.
 15 1 1 2 0 0 -2.34661 0.577466 -4 4.99978 1.7768 0. 1
 -15 1 1 2 0 0 2.34661 -0.577466 3.99775 4.99798 1.7768 0. -1
</event>
<event>
 4 80 1 -1 -1 -1
 11 -1 0 0 0 0 0 0 5 5 0 0. 9.
 -11 -1 0 0 0 0 0 0 -4.99999 4.99999 0 0. 9.
 15 1 1 2 0 0 -1.474 -1.43017 -4.1981 4.99999 1.7768 0. 1
 -15 1 1 2 0 0 1.474 1.43017 4.19812 5 1.7768 0. -1
</event>
<event>
 4 80 1 -1 -1 -1
 11 -1 0 0 0 0 0 0 5 5 0 0. 9.
 -11 -1 0 0 0 0 0 0 -5 5 0 0. 9.
 15 1 1 2 0 0 1.72218 -0.668032 4.29303 5 1.7768 0. -1
 -15 1 1 2 0 0 -1.72218 0.668032 -4.29303 5 1.7768 0. 1
</event>
<event>
 4 80 1 -1 -1 -1
 11 -1 0 0 0 0 0 0 5 5 0 0. 9.
 -11 -1 0 0 0 0 0 0 -5 5 0 0. 9.
 15 1 1 2 0 0 -0.212987 2.48601 3.95179 5 1.7768 0. 1
 -15 1 1 2 0 0 0.212987 -2.48601 -3.95179 5 1.7768 0. -1
</event>
<event>
 4 80 1 -1 -1 -1
 11 -1 0 0 0 0 0 0 4.99872 4.99872 0 0. 9.
 -11 -1 0 0 0 0 0 0 -4.99827 4.99827 0 0. 9.
 15 1 1 2 0 0 0.0542248 4.67158 0.0248796 4.9985 1.7768 0. 1
 -15 1 1 2 0 0 -0.0542248 -4.67158 -0.0244321 4.9985 1.7768 0. -1
</event>
<event>
 4 80 1 -1 -1 -1
 11 -1 0 0 0 0 0 0 1.20342 1.20342 0 0. 9.
 -11 -1 0 0 0 0 0 0 -5 5 0 0. 9.
 15 1 1 2 0 0 0.250673 0.6973 -3.82024 4.27797 1.7768 0. -1
 -15 1 1 2 0 0 -0.250673 -0.6973 0.0236547 1.92545 1.7768 0. 1
</event>
<event>
 4 80 1 -1 -1 -1
 11 -1 0 0 0 0 0 0 4.99914 4.99914 0 0. 9.
 -11 -1 0 0 0 0 0 0 -5 5 0 0. 9.
 15 1 1 2 0 0 1.78285 2.24716 3.6887 4.99925 1.7768 0. 1
 -15 1 1 2 0 0 -1.78285 -2.24716 -3.68956 4.99989 1.7768 0. -1
</event>
<event>
 4 80 1 -1 -1 -1
 11 -1 0 0 0 0 0 0 4.9979 4.9979 0 0. 9.
 -11 -1 0 0 0 0 0 0 -5 5 0 0. 9.
 15 1 1 2 0 0 -4.60487 -0.78607 0.0942107 4.99893 1.7768 0. 1
 -15 1 1 2 0 0 4.60487 0.78607 -0.0963061 4.99897 1.7768 0. -1
</event>
<event>
 4 80 1 -1 -1 -1
 11 -1 0 0 0 0 0 0 5 5 0 0. 9.
 -11 -1 0 0 0 0 0 0 -4.99822 4.99822 0 0. 9.
 15 1 1 2 0 0 0.751723 2.41744 -3.92649 4.99842 1.7768 0. 1
 -15 1 1 2 0 0 -0.751723 -2.41744 3.92826 4.99981 1.7768 0. -1
</event>
<event>
 4 80 1 -1 -1 -1
 11 -1 0 0 0 0 0 0 1.73256 1.73256 0 0. 9.
 -11 -1 0 0 0 0 0 0 -5 5 0 0. 9.
 15 1 1 2 0 0 -1.39989 0.0481576 -3.78656 4.41109 1.7768 0. -1
 -15 1 1 2 0 0 1.39989 -0.0481576 0.519123 2.32147 1.7768 0. 1
</event>
<event>
 4 80 1 -1 -1 -1
 11 -1 0 0 0 0 0 0 4.99999 4.99999 0 0. 9.
 -11 -1 0 0 0 0 0 0 -3.31108 3.31108 0 0. 9.
 15 1 1 2 0 0 2.2186 -0.17053 -2.12374 3.55236 1.7768 0. 1
 -15 1 1 2 0 0 -2.2186 0.17053 3.81265 4.75871 1.7768 0. -1
</event>
<event>
 4 80 1 -1 -1 -1
 11 -1 0 0 0 0 0 0 5 5 0 0. 9.
 -11 -1 0 0 0 0 0 0 -5 5 0 0. 9.
 15 1 1 2 0 0 -3.75787 2.65777 0.810508 5 1.7768 0. -1
 -15 1 1 2 0 0 3.75787 -2.65777 -0.810505 5 1.7768 0. 1
</event>
<event>
 4 80 1 -1 -1 -1
 11 -1 0 0 0 0 0 0 5 5 0 0. 9.
 -11 -1 0 0 0 0 0 0 -5 5 0 0. 9.
 15 1 1 2 0 0 2.16869 -2.87872 -2.97524 5 1.7768 0. 1
 -15 1 1 2 0 0 -2.16869 2.87872 2.97524 5 1.7768 0. -1
</event>
<event>
 4 80 1 -1 -1 -1
 11 -1 0 0 0 0 0 0 5 5 0 0. 9.
 -11 -1 0 0 0 0 0 0 -4.9833 4.9833 0 0. 9.
 15 1 1 2 0 0 0.845926 -2.38266 3.92832 4.99821 1.7768 0. 1
 -15 1 1 2 0 0 -0.845926 2.38266 -3.91162 4.98509 1.7768 0. -1
</event>
<event>
 4 80 1 -1 -1 -1
 11 -1 0 0 0 0 0 0 5 5 0 0. 9.
 -11 -1 0 0 0 0 0 0 -4.99996 4.99996 0 0. 9.
 15 1 1 2 0 0 1.17075 1.29517 4.33522 5 1.7768 0. -1
 -15 1 1 2 0 0 -1.17075 -1.29517 -4.33518 4.99996 1.7768 0. 1
</event>
<event>
 4 80 1 -1 -1 -1
 11 -1 0 0 0 0 0 0 4.93267 4.93267 0 0. 9.
 -11 -1 0 0 0 0 0 0 -4.99971 4.99971 0 0. 9.
 15 1 1 2 0 0 3.42201 -1.11421 2.89103 4.94645 1.7768 0. 1
 -15 1 1 2 0 0 -3.42201 1.11421 -2.95807 4.98593 1.7768 0. -1
</event>
<event>
 4 80 1 -1 -1 -1
 11 -1 0 0 0 0 0 0 5 5 0 0. 9.
 -11 -1 0 0 0 0 0 0 -5 5 0 0. 9.
 15 1 1 2 0 0 -4.32914 -1.21572 -1.27392 5 1.7768 0. 1
 -15 1 1 2 0 0 4.32914 1.21572 1.27392 5 1.7768 0. -1
</event>
<event>
 4 80 1 -1 -1 -1
 11 -1 0 0 0 0 0 0 4.9988 4.9988 0 0. 9.
 -11 -1 0 0 0 0 0 0 -5 5 0 0. 9.
 15 1 1 2 0 0 2.77357 -3.66727 0.83292 4.9993 1.7768 0. -1
 -15 1 1 2 0 0 -2.77357 3.66727 -0.834123 4.9995 1.7768 0. 1
</event>
<event>
 4 80 1 -1 -1 -1
 11 -1 0 0 0 0 0 0 5 5 0 0. 9.
 -11 -1 0 0 0 0 0 0 -5 5 0 0. 9.
 15 1 1 2 0 0 -3.10707 -3.4352 0.622743 5 1.7768 0. 1
 -15 1 1 2 0 0 3.10707 3.4352 -0.622743 5 1.7768 0. -1
</event>
<event>
 4 80 1 -1 -1 -1
 11 -1 0 0 0 0 0 0 4.99996 4.99996 0 0. 9.
 -11 -1 0 0 0 0 0 0 -4.99754 4.99754 0 0. 9.
 15 1 1 2 0 0 -3.50416 0.722455 -3.00356 4.99802 1.7768 0. 1
 -15 1 1 2 0 0 3.50416 -0.722455 3.00598 4.99947 1.7768 0. -1
</event>
<event>
 4 80 1 -1 -1 -1
 11 -1 0 0 0 0 0 0 1.80292 1.80292 0 0. 9.
 -11 -1 0 0 0 0 0 0 -4.69032 4.69032 0 0. 9.
 15 1 1 2 0 0 0.74093 1.77709 -0.0352292 2.62031 1.7768 0. -1
 -15 1 1 2 0 0 -0.74093 -1.77709 -2.85216 3.87293 1.7768 0. 1
</event>
<event>
 4 80 1 -1 -1 -1
 11 -1 0 0 0 0 0 0 4.99534 4.99534 0 0. 9.
 -11 -1 0 0 0 0 0 0 -4.99793 4.99793 0 0. 9.
 15 1 1 2 0 0 -4.42719 -0.945203 1.14553 4.99634 1.7768 0. -1
 -15 1 1 2 0 0 4.42719 0.945203 -1.14812 4.99693 1.7768 0. 1
</event>
<event>
 4 80 1 -1 -1 -1
 11 -1 0 0 0 0 0 0 5 5 0 0. 9.
 -11 -1 0 0 0 0 0 0 -5 5 0 0. 9.
 15 1 1 2 0 0 4.48356 -0.634947 -1.1562 5 1.7768 0. -1
 -15 1 1 2 0 0 -4.48356 0.634947 1.1562 5 1.7768 0. 1
</event>
<event>
 4 80 1 -1 -1 -1
 11 -1 0 0 0 0 0 0 5 5 0 0. 9.
 -11 -1 0 0 0 0 0 0 -5 5 0 0. 9.
 15 1 1 2 0 0 -1.18872 -0.785126 4.45116 5 1.7768 0. -1
 -15 1 1 2 0 0 1.18872 0.785126 -4.45116 5 1.7768 0. 1
</event>
<event>
 4 80 1 -1 -1 -1
 11 -1 0 0 0 0 0 0 5 5 0 0. 9.
 -11 -1 0 0 0 0 0 0 -4.99999 4.99999 0 0. 9.
 15 1 1 2 0 0 -2.23554 4.01585 0.847064 5 1.7768 0. -1
 -15 1 1 2 0 0 2.23554 -4.01585 -0.847059 5 1.7768 0. 1
</event>
<event>
 4 80 1 -1 -1 -1
 11 -1 0 0 0 0 0 0 5 5 0 0. 9.
 -11 -1 0 0 0 0 0 0 -4.99863 4.99863 0 0. 9.
 15 1 1 2 0 0 1.76571 -2.57261 3.4791 4.99979 1.7768 0. 1
 -15 1 1 2 0 0 -1.76571 2.57261 -3.47773 4.99884 1.7768 0. -1
</event>
<event>
 4 80 1 -1 -1 -1
 11 -1 0 0 0 0 0 0 3.55716 3.55716 0 0. 9.
 -11 -1 0 0 0 0 0 0 -5 5 0 0. 9.
 15 1 1 2 0 0 3.20482 -2.08222 -0.572418 4.25346 1.7768 0. 1
 -15 1 1 2 0 0 -3.20482 2.08222 -0.870424 4.3037 1.7768 0. -1
</event>
<event>
 4 80 1 -1 -1 -1
 11 -1 0 0 0 0 0 0 5 5 0 0. 9.
 -11 -1 0 0 0 0 0 0 -5 5 0 0. 9.
 15 1 1 2 0 0 -0.445974 0.913063 4.56176 5 1.7768 0. 1
 -15 1 1 2 0 0 0.445974 -0.913063 -4.56176 5 1.7768 0. -1
</event>
<event>
 4 80 1 -1 -1 -1
 11 -1 0 0 0 0 0 0 5 5 0 0. 9.
 -11 -1 0 0 0 0 0 0 -5 5 0 0. 9.
 15 1 1 2 0 0 2.97929 -2.61913 2.47109 5 1.7768 0. 1
 -15 1 1 2 0 0 -2.97929 2.61913 -2.47109 5 1.7768 0. -1
</event>
<event>
 4 80 1 -1 -1 -1
 11 -1 0 0 0 0 0 0 4.92423 4.92423 0 0. 9.
 -11 -1 0 0 0 0 0 0 -4.99833 4.99833 0 0. 9.
 15 1 1 2 0 0 -3.66907 -0.208935 -2.85661 4.98234 1.7768 0. 1
 -15 1 1 2 0 0 3.66907 0.208935 2.7825 4.94022 1.7768 0. -1
</event>
<event>
 4 80 1 -1 -1 -1
 11 -1 0 0 0 0 0 0 5 5 0 0. 9.
 -11 -1 0 0 0 0 0 0 -4.99999 4.99999 0 0. 9.
 15 1 1 2 0 0 1.67984 -3.17896 2.98574 5 1.7768 0. 1
 -15 1 1 2 0 0 -1.67984 3.17896 -2.98573 4.99999 1.7768 0. -1
</event>
<event>
 4 80 1 -1 -1 -1
 11 -1 0 0 0 0 0 0 2.66299 2.66299 0 0. 9.
 -11 -1 0 0 0 0 0 0 -4.82925 4.82925 0 0. 9.
 15 1 1 2 0 0 1.96897 1.5239 0.872123 3.18079 1.7768 0. -1
 -15 1 1 2 0 0 -1.96897 -1.5239 -3.03838 4.31145 1.7768 0. 1
</event>
<event>
 4 80 1 -1 -1 -1
 11 -1 0 0 0 0 0 0 4.99998 4.99998 0 0. 9.
 -11 -1 0 0 0 0 0 0 -4.99573 4.99573 0 0. 9.
 15 1 1 2 0 0 1.92642 4.12156 1.0616 4.99831 1.7768 0. 1
 -15 1 1 2 0 0 -1.92642 -4.12156 -1.05735 4.99741 1.7768 0. -1
</event>
<event>
 4 80 1 -1 -1 -1
 11 -1 0 0 0 0 0 0 4.49234 4.49234 0 0. 9.
 -11 -1 0 0 0 0 0 0 -5 5 0 0. 9.
 15 1 1 2 0 0 1.48703 3.98016 0.866273 4.68626 1.7768 0. -1
 -15 1 1 2 0 0 -1.48703 -3.98016 -1.37394 4.80607 1.7768 0. 1
</event>
<event>
 4 80 1 -1 -1 -1
 11 -1 0 0 0 0 0 0 4.97914 4.97914 0 0. 9.
 -11 -1 0 0 0 0 0 0 -5 5 0 0. 9.
 15 1 1 2 0 0 -2.44339 -2.45869 3.10769 4.98305 1.7768 0. 1
 -15 1 1 2 0 0 2.44339 2.45869 -3.12856 4.99609 1.7768 0. -1
</event>
<event>
 4 80 1 -1 -1 -1
 11 -1 0 0 0 0 0 0 4.99999 4.99999 0 0. 9.
 -11 -1 0 0 0 0 0 0 -4.98708 4.98708 0 0. 9.
 15 1 1 2 0 0 -0.0114674 -0.526851 -4.63035 4.98754 1.7768 0. -1
 -15 1 1 2 0 0 0.0114674 0.526851 4.64326 4.99953 1.7768 0. 1
</event>
<event>
 4 80 1 -1 -1 -1
 11 -1 0 0 0 0 0 0 4.48473 4.48473 0 0. 9.
 -11 -1 0 0 0 0 0 0 -5 5 0 0. 9.
 15 1 1 2 0 0 -1.98428 -0.543685 -4.1406 4.95331 1.7768 0. 1
 -15 1 1 2 0 0 1.98428 0.543685 3.62533 4.53141 1.7768 0. -1
</event>
<event>
 4 80 1 -1 -1 -1
 11 -1 0 0 0 0 0 0 5 5 0 0. 9.
 -11 -1 0 0 0 0 0 0 -4.99996 4.99996 0 0. 9.
 15 1 1 2 0 0 -0.807254 4.37788 -1.42285 4.99997 1.7768 0. 1
 -15 1 1 2 0 0 0.807254 -4.37788 1.42289 4.99999 1.7768 0. -1
</event>
<event>
 4 80 1 -1 -1 -1
 11 -1 0 0 0 0 0 0 4.99691 4.99691 0 0. 9.
 -11 -1 0 0 0 0 0 0 -5 5 0 0. 9.
 15 1 1 2 0 0 -3.82488 -0.716447 -2.58685 4.99925 1.7768 0. -1
 -15 1 1 2 0 0 3.82488 0.716447 2.58376 4.99765 1.7768 0. 1
</event>
<event>
 4 80 1 -1 -1 -1
 11 -1 0 0 0 0 0 0 4.99274 4.99274 0 0. 9.
 -11 -1 0 0 0 0 0 0 -4.99976 4.99976 0 0. 9.
 15 1 1 2 0 0 4.50726 0.82433 -0.903433 4.99688 1.7768 0. 1
 -15 1 1 2 0 0 -4.50726 -0.82433 0.896415 4.99562 1.7768 0. -1
</event>
<event>
 4 80 1 -1 -1 -1
 11 -1 0 0 0 0 0 0 5 5 0 0. 9.
 -11 -1 0 0 0 0 0 0 -5 5 0 0. 9.
 15 1 1 2 0 0 3.40678 -1.97896 -2.51393 5 1.7768 0. 1
 -15 1 1 2 0 0 -3.40678 1.97896 2.51393 5 1.7768 0. -1
</event>
<event>
 4 80 1 -1 -1 -1
 11 -1 0 0 0 0 0 0 5 5 0 0. 9.
 -11 -1 0 0 0 0 0 0 -0.762832 0.762832 0 0. 9.
 15 1 1 2 0 0 -0.644641 -0.350077 1.61109 2.50828 1.7768 0. -1
 -15 1 1 2 0 0 0.644641 0.350077 2.62607 3.25455 1.7768 0. 1
</event>
<event>
 4 80 1 -1 -1 -1
 11 -1 0 0 0 0 0 0 4.99648 4.99648 0 0. 9.
 -11 -1 0 0 0 0 0 0 -5 5 0 0. 9.
 15 1 1 2 0 0 -0.645013 3.46803 3.06116 4.99717 1.7768 0. 1
 -15 1 1 2 0 0 0.645013 -3.46803 -3.06467 4.99932 1.7768 0. -1
</event>
<event>
 4 80 1 -1 -1 -1
 11 -1 0 0 0 0 0 0 5 5 0 0. 9.
 -11 -1 0 0 0 0 0 0 -5 5 0 0. 9.
 15 1 1 2 0 0 -2.00599 3.52059 2.32889 5 1.7768 0. -1
 -15 1 1 2 0 0 2.00599 -3.52059 -2.32889 5 1.7768 0. 1
</event>
<event>
 4 80 1 -1 -1 -1
 11 -1 0 0 0 0 0 0 5 5 0 0. 9.
 -11 -1 0 0 0 0 0 0 -5 5 0 0. 9.
 15 1 1 2 0 0 -2.41292 -0.670347 3.94598 5 1.7768 0. -1
 -15 1 1 2 0 0 2.41292 0.670347 -3.94598 5 1.7768 0. 1
</event>
<event>
 4 80 1 -1 -1 -1
 11 -1 0 0 0 0 0 0 4.99997 4.99997 0 0. 9.
 -11 -1 0 0 0 0 0 0 -5 5 0 0. 9.
 15 1 1 2 0 0 -0.711648 2.94162 -3.56127 5 1.7768 0. -1
 -15 1 1 2 0 0 0.711648 -2.94162 3.56124 4.99997 1.7768 0. 1
</event>
<event>
 4 80 1 -1 -1 -1
 11 -1 0 0 0 0 0 0 5 5 0 0. 9.
 -11 -1 0 0 0 0 0 0 -5 5 0 0. 9.
 15 1 1 2 0 0 -3.55286 -0.888938 2.90331 5 1.7768 0. -1
 -15 1 1 2 0 0 3.55286 0.888938 -2.90331 5 1.7768 0. 1
</event>
<event>
 4 80 1 -1 -1 -1
 11 -1 0 0 0 0 0 0 5 5 0 0. 9.
 -11 -1 0 0 0 0 0 0 -5 5 0 0. 9.
 15 1 1 2 0 0 3.59614 2.3206 1.87746 5 1.7768 0. -1
 -15 1 1 2 0 0 -3.59614 -2.3206 -1.87746 5 1.7768 0. 1
</event>
<event>
 4 80 1 -1 -1 -1
 11 -1 0 0 0 0 0 0 5 5 0 0. 9.
 -11 -1 0 0 0 0 0 0 -1.27943 1.27943 0 0. 9.
 15 1 1 2 0 0 -1.19783 1.06855 0.849645 2.54091 1.7768 0. -1
 -15 1 1 2 0 0 1.19783 -1.06855 2.87092 3.73852 1.7768 0. 1
</event>
<event>
 4 80 1 -1 -1 -1
 11 -1 0 0 0 0 0 0 4.99981 4.99981 0 0. 9.
 -11 -1 0 0 0 0 0 0 -4.85896 4.85896 0 0. 9.
 15 1 1 2 0 0 1.86865 -2.01743 -3.61428 4.87674 1.7768 0. -1
 -15 1 1 2 0 0 -1.86865 2.01743 3.75513 4.98203 1.7768 0. 1
</event>
<event>
 4 80 1 -1 -1 -1
 11 -1 0 0 0 0 0 0 4.99953 4.99953 0 0. 9.
 -11 -1 0 0 0 0 0 0 -4.96913 4.96913 0 0. 9.
 15 1 1 2 0 0 0.824478 0.470511 -4.54382 4.97043 1.7768 0. 1
 -15 1 1 2 0 0 -0.824478 -0.470511 4.57422 4.99823 1.7768 0. -1
</event>
<event>
 4 80 1 -1 -1 -1
 11 -1 0 0 0 0 0 0 4.99999 4.99999 0 0. 9.
 -11 -1 0 0 0 0 0 0 -5 5 0 0. 9.
 15 1 1 2 0 0 -2.96087 -3.28181 -1.5183 5 1.7768 0. -1
 -15 1 1 2 0 0 2.96087 3.28181 1.51829 5 1.7768 0. 1
</event>
<event>
 4 80 1 -1 -1 -1
 11 -1 0 0 0 0 0 0 4.99999 4.99999 0 0. 9.
 -11 -1 0 0 0 0 0 0 -4.86039 4.86039 0 0. 9.
 15 1 1 2 0 0 -1.49834 4.14742 -1.23341 4.91174 1.7768 0. 1
 -15 1 1 2 0 0 1.49834 -4.14742 1.37301 4.94864 1.7768 0. -1
</event>
<event>
 4 80 1 -1 -1 -1
 11 -1 0 0 0 0 0 0 5 5 0 0. 9.
 -11 -1 0 0 0 0 0 0 -4.99999 4.99999 0 0. 9.
 15 1 1 2 0 0 -0.106927 4.5255 -1.16218 5 1.7768 0. 1
 -15 1 1 2 0 0 0.106927 -4.5255 1.16218 5 1.7768 0. -1
</event>
<event>
 4 80 1 -1 -1 -1
 11 -1 0 0 0 0 0 0 1.03075 1.03075 0 0. 9.
 -11 -1 0 0 0 0 0 0 -5 5 0 0. 9.
 15 1 1 2 0 0 1.28387 0.250569 -1.27567 2.54876 1.7768 0. 1
 -15 1 1 2 0 0 -1.28387 -0.250569 -2.69359 3.48199 1.7768 0. -1
</event>
<event>
 4 80 1 -1 -1 -1
 11 -1 0 0 0 0 0 0 5 5 0 0. 9.
 -11 -1 0 0 0 0 0 0 -4.99999 4.99999 0 0. 9.
 15 1 1 2 0 0 0.921138 1.84827 4.19257 5 1.7768 0. 1
 -15 1 1 2 0 0 -0.921138 -1.84827 -4.19256 4.99999 1.7768 0. -1
</event>
<event>
 4 80 1 -1 -1 -1
 11 -1 0 0 0 0 0 0 5 5 0 0. 9.
 -11 -1 0 0 0 0 0 0 -4.98319 4.98319 0 0. 9.
 15 1 1 2 0 0 1.09586 1.6928 4.21457 4.99868 1.7768 0. -1
 -15 1 1 2 0 0 -1.09586 -1.6928 -4.19776 4.98452 1.7768 0. 1
</event>
<event>
 4 80 1 -1 -1 -1
 11 -1 0 0 0 0 0 0 4.99999 4.99999 0 0. 9.
 -11 -1 0 0 0 0 0 0 -4.99996 4.99996 0 0. 9.
 15 1 1 2 0 0 4.05898 -1.22527 -1.96605 4.99997 1.7768 0. 1
 -15 1 1 2 0 0 -4.05898 1.22527 1.96607 4.99998 1.7768 0. -1
</event>
<event>
 4 80 1 -1 -1 -1
 11 -1 0 0 0 0 0 0 5 5 0 0. 9.
 -11 -1 0 0 0 0 0 0 -4.99809 4.99809 0 0. 9.
 15 1 1 2 0 0 -2.61838 2.32406 3.0954 4.99964 1.7768 0. 1
 -15 1 1 2 0 0 2.61838 -2.32406 -3.09349 4.99846 1.7768 0. -1
</event>
<event>
 4 80 1 -1 -1 -1
 11 -1 0 0 0 0 0 0 5 5 0 0. 9.
 -11 -1 0 0 0 0 0 0 -4.99998 4.99998 0 0. 9.
 15 1 1 2 0 0 1.67139 3.59798 2.47047 5 1.7768 0. 1
 -15 1 1 2 0 0 -1.67139 -3.59798 -2.47045 4.99999 1.7768 0. -1
</event>
<event>
 4 80 1 -1 -1 -1
 11 -1 0 0 0 0 0 0 5 5 0 0. 9.
 -11 -1 0 0 0 0 0 0 -4.99923 4.99923 0 0. 9.
 15 1 1 2 0 0 2.89788 2.4751 -2.70417 4.99941 1.7768 0. 1
 -15 1 1 2 0 0 -2.89788 -2.4751 2.70493 4.99982 1.7768 0. -1
</event>
<event>
 4 80 1 -1 -1 -1
 11 -1 0 0 0 0 0 0 5 5 0 0. 9.
 -11 -1 0 0 0 0 0 0 -4.96979 4.96979 0 0. 9.
 15 1 1 2 0 0 -1.18521 3.77066 -2.44835 4.97743 1.7768 0. -1
 -15 1 1 2 0 0 1.18521 -3.77066 2.47857 4.99236 1.7768 0. 1
</event>
<event>
 4 80 1 -1 -1 -1
 11 -1 0 0 0 0 0 0 5 5 0 0. 9.
 -11 -1 0 0 0 0 0 0 -5 5 0 0. 9.
 15 1 1 2 0 0 -0.780723 -3.53449 -2.95637 5 1.7768 0. 1
 -15 1 1 2 0 0 0.780723 3.53449 2.95637 5 1.7768 0. -1
</event>
<event>
 4 80 1 -1 -1 -1
 11 -1 0 0 0 0 0 0 4.9979 4.9979 0 0. 9.
 -11 -1 0 0 0 0 0 0 -4.99999 4.99999 0 0. 9.
 15 1 1 2 0 0 4.38544 1.06509 1.20942 4.9987 1.7768 0. -1
 -15 1 1 2 0 0 -4.38544 -1.06509 -1.21151 4.9992 1.7768 0. 1
</event>
<event>
 4 80 1 -1 -1 -1
 11 -1 0 0 0 0 0 0 5 5 0 0. 9.
 -11 -1 0 0 0 0 0 0 -2.55195 2.55195 0 0. 9.
 15 1 1 2 0 0 -1.54389 1.7728 -0.910014 3.0842 1.7768 0. 1
 -15 1 1 2 0 0 1.54389 -1.7728 3.35807 4.46775 1.7768 0. -1
</event>
<event>
 4 80 1 -1 -1 -1
 11 -1 0 0 0 0 0 0 4.99006 4.99006 0 0. 9.
 -11 -1 0 0 0 0 0 0 -4.71136 4.71136 0 0. 9.
 15 1 1 2 0 0 -1.71109 -4.1615 -0.186854 4.84134 1.7768 0. -1
 -15 1 1 2 0 0 1.71109 4.1615 0.465552 4.86008 1.7768 0. 1
</event>
<event>
 4 80 1 -1 -1 -1
 11 -1 0 0 0 0 0 0 2.07035 2.07035 0 0. 9.
 -11 -1 0 0 0 0 0 0 -5 5 0 0. 9.
 15 1 1 2 0 0 -2.262 -0.898643 -0.226666 3.02214 1.7768 0. 1
 -15 1 1 2 0 0 2.262 0.898643 -2.70298 4.04822 1.7768 0. -1
</event>
<event>
 4 80 1 -1 -1 -1
 11 -1 0 0 0 0 0 0 5 5 0 0. 9.
 -11 -1 0 0 0 0 0 0 -5 5 0 0. 9.
 15 1 1 2 0 0 0.631373 -3.98014 2.36688 5 1.7768 0. 1
 -15 1 1 2 0 0 -0.631373 3.98014 -2.36688 5 1.7768 0. -1
</event>
<event>
 4 80 1 -1 -1 -1
 11 -1 0 0 0 0 0 0 4.97867 4.97867 0 0. 9.
 -11 -1 0 0 0 0 0 0 -4.96304 4.96304 0 0. 9.
 15 1 1 2 0 0 -0.248958 -4.5748 -0.741069 4.96967 1.7768 0. -1
 -15 1 1 2 0 0 0.248958 4.5748 0.756696 4.97203 1.7768 0. 1
</event>
<event>
 4 80 1 -1 -1 -1
 11 -1 0 0 0 0 0 0 4.3856 4.3856 0 0. 9.
 -11 -1 0 0 0 0 0 0 -5 5 0 0. 9.
 15 1 1 2 0 0 -0.0843294 -0.903948 -4.55258 4.97071 1.7768 0. -1
 -15 1 1 2 0 0 0.0843294 0.903948 3.93818 4.41489 1.7768 0. 1
</event>
<event>
 4 80 1 -1 -1 -1
 11 -1 0 0 0 0 0 0 4.96479 4.96479 0 0. 9.
 -11 -1 0 0 0 0 0 0 -4.43976 4.43976 0 0. 9.
 15 1 1 2 0 0 -0.578012 -3.66314 -2.00643 4.5756 1.7768 0. 1
 -15 1 1 2 0 0 0.578012 3.66314 2.53147 4.82895 1.7768 0. -1
</event>
<event>
 4 80 1 -1 -1 -1
 11 -1 0 0 0 0 0 0 5 5 0 0. 9.
 -11 -1 0 0 0 0 0 0 -4.99993 4.99993 0 0. 9.
 15 1 1 2 0 0 -2.66656 1.95644 3.30211 4.99999 1.7768 0. -1
 -15 1 1 2 0 0 2.66656 -1.95644 -3.30205 4.99995 1.7768 0. 1
</event>
<event>
 4 80 1 -1 -1 -1
 11 -1 0 0 0 0 0 0 4.99998 4.99998 0 0. 9.
 -11 -1 0 0 0 0 0 0 -5 5 0 0. 9.
 15 1 1 2 0 0 -3.77676 -2.7477 -0.168542 4.99999 1.7768 0. 1
 -15 1 1 2 0 0 3.77676 2.7477 0.168525 4.99999 1.7768 0. -1
</event>
<event>
 4 80 1 -1 -1 -1
 11 -1 0 0 0 0 0 0 1.46621 1.46621 0 0. 9.
 -11 -1 0 0 0 0 0 0 -4.99999 4.99999 0 0. 9.
 15 1 1 2 0 0 -1.55302 -1.26654 -1.29323 2.97425 1.7768 0. -1
 -15 1 1 2 0 0 1.55302 1.26654 -2.24055 3.49195 1.7768 0. 1
</event>
<event>
 4 80 1 -1 -1 -1
 11 -1 0 0 0 0 0 0 5 5 0 0. 9.
 -11 -1 0 0 0 0 0 0 -4.98539 4.98539 0 0. 9.
 15 1 1 2 0 0 2.0468 3.91463 1.50912 4.99489 1.7768 0. -1
 -15 1 1 2 0 0 -2.0468 -3.91463 -1.49451 4.9905 1.7768 0. 1
</event>
<event>
 4 80 1 -1 -1 -1
 11 -1 0 0 0 0 0 0 5 5 0 0. 9.
 -11 -1 0 0 0 0 0 0 -5 5 0 0. 9.
 15 1 1 2 0 0 2.26885 -2.21449 -3.43375 5 1.7768 0. 1
 -15 1 1 2 0 0 -2.26885 2.21449 3.43375 5 1.7768 0. -1
</event>
<event>
 4 80 1 -1 -1 -1
 11 -1 0 0 0 0 0 0 5 5 0 0. 9.
 -11 -1 0 0 0 0 0 0 -5 5 0 0. 9.
 15 1 1 2 0 0 -0.741105 4.37908 -1.4549 5 1.7768 0. 1
 -15 1 1 2 0 0 0.741105 -4.37908 1.4549 5 1.7768 0. -1
</event>
<event>
 4 80 1 -1 -1 -1
 11 -1 0 0 0 0 0 0 4.99997 4.99997 0 0. 9.
 -11 -1 0 0 0 0 0 0 -4.77629 4.77629 0 0. 9.
 15 1 1 2 0 0 2.55431 -3.60491 1.20927 4.91324 1.7768 0. -1
 -15 1 1 2 0 0 -2.55431 3.60491 -0.985589 4.86302 1.7768 0. 1
</event>
<event>
 4 80 1 -1 -1 -1
 11 -1 0 0 0 0 0 0 5 5 0 0. 9.
 -11 -1 0 0 0 0 0 0 -5 5 0 0. 9.
 15 1 1 2 0 0 2.43879 0.795839 3.90656 5 1.7768 0. -1
 -15 1 1 2 0 0 -2.43879 -0.795839 -3.90656 5 1.7768 0. 1
</event>
<event>
 4 80 1 -1 -1 -1
 11 -1 0 0 0 0 0 0 5 5 0 0. 9.
 -11 -1 0 0 0 0 0 0 -5 5 0 0. 9.
 15 1 1 2 0 0 -3.24659 3.33588 0.41693 5 1.7768 0. -1
 -15 1 1 2 0 0 3.24659 -3.33588 -0.41693 5 1.7768 0. 1
</event>
<event>
 4 80 1 -1 -1 -1
 11 -1 0 0 0 0 0 0 5 5 0 0. 9.
 -11 -1 0 0 0 0 0 0 -4.99756 4.99756 0 0. 9.
 15 1 1 2 0 0 1.02697 0.591391 4.52069 4.99988 1.7768 0. 1
 -15 1 1 2 0 0 -1.02697 -0.591391 -4.51825 4.99767 1.7768 0. -1
</event>
<event>
 4 80 1 -1 -1 -1
 11 -1 0 0 0 0 0 0 5 5 0 0. 9.
 -11 -1 0 0 0 0 0 0 -5 5 0 0. 9.
 15 1 1 2 0 0 -0.215872 3.41011 3.18855 5 1.7768 0. 1
 -15 1 1 2 0 0 0.215872 -3.41011 -3.18855 5 1.7768 0. -1
</event>
<event>
 4 80 1 -1 -1 -1
 11 -1 0 0 0 0 0 0 4.99997 4.99997 0 0. 9.
 -11 -1 0 0 0 0 0 0 -5 5 0 0. 9.
 15 1 1 2 0 0 -0.46714 3.19836 3.37554 4.99997 1.7768 0. 1
 -15 1 1 2 0 0 0.46714 -3.19836 -3.37557 4.99999 1.7768 0. -1
</event>
<event>
 4 80 1 -1 -1 -1
 11 -1 0 0 0 0 0 0 5 5 0 0. 9.
 -11 -1 0 0 0 0 0 0 -5 5 0 0. 9.
 15 1 1 2 0 0 1.51677 -0.116566 -4.41906 5 1.7768 0. 1
 -15 1 1 2 0 0 -1.51677 0.116566 4.41906 5 1.7768 0. -1
</event>
<event>
 4 80 1 -1 -1 -1
 11 -1 0 0 0 0 0 0 4.96178 4.96178 0 0. 9.
 -11 -1 0 0 0 0 0 0 -5 5 0 0. 9.
 15 1 1 2 0 0 -3.88784 0.241567 -2.56422 4.99065 1.7768 0. 1
 -15 1 1 2 0 0 3.88784 -0.241567 2.526 4.97112 1.7768 0. -1
</event>
<event>
 4 80 1 -1 -1 -1
 11 -1 0 0 0 0 0 0 4.99793 4.99793 0 0. 9.
 -11 -1 0 0 0 0 0 0 -4.95109 4.95109 0 0. 9.
 15 1 1 2 0 0 4.13846 -2.10618 0.18025 4.97525 1.7768 0. -1
 -15 1 1 2 0 0 -4.13846 2.10618 -0.133412 4.97377 1.7768 0. 1
</event>
<event>
 4 80 1 -1 -1 -1
 11 -1 0 0 0 0 0 0 5 5 0 0. 9.
 -11 -1 0 0 0 0 0 0 -5 5 0 0. 9.
 15 1 1 2 0 0 3.16794 1.63707 -3.02099 5 1.7768 0. -1
 -15 1 1 2 0 0 -3.16794 -1.63707 3.02099 5 1.7768 0. 1
</event>
<event>
 4 80 1 -1 -1 -1
 11 -1 0 0 0 0 0 0 5 5 0 0. 9.
 -11 -1 0 0 0 0 0 0 -4.99986 4.99986 0 0. 9.
 15 1 1 2 0 0 -2.2931 3.28924 2.40094 4.99996 1.7768 0. 1
 -15 1 1 2 0 0 2.2931 -3.28924 -2.4008 4.9999 1.7768 0. -1
</event>
<event>
 4 80 1 -1 -1 -1
 11 -1 0 0 0 0 0 0 5 5 0 0. 9.
 -11 -1 0 0 0 0 0 0 -5 5 0 0. 9.
 15 1 1 2 0 0 1.56662 -4.14104 1.49659 5 1.7768 0. -1
 -15 1 1 2 0 0 -1.56662 4.14104 -1.49659 5 1.7768 0. 1
</event>
<event>
 4 80 1 -1 -1 -1
 11 -1 0 0 0 0 0 0 5 5 0 0. 9.
 -11 -1 0 0 0 0 0 0 -4.66895 4.66895 0 0. 9.
 15 1 1 2 0 0 -3.4389 0.534926 3.00882 4.93183 1.7768 0. 1
 -15 1 1 2 0 0 3.4389 -0.534926 -2.67777 4.73713 1.7768 0. -1
</event>
<event>
 4 80 1 -1 -1 -1
 11 -1 0 0 0 0 0 0 5 5 0 0. 9.
 -11 -1 0 0 0 0 0 0 -5 5 0 0. 9.
 15 1 1 2 0 0 -2.07124 -4.15501 -0.536782 5 1.7768 0. -1
 -15 1 1 2 0 0 2.07124 4.15501 0.536783 5 1.7768 0. 1
</event>
<event>
 4 80 1 -1 -1 -1
 11 -1 0 0 0 0 0 0 4.91315 4.91315 0 0. 9.
 -11 -1 0 0 0 0 0 0 -1.36716 1.36716 0 0. 9.
 15 1 1 2 0 0 -0.869713 -1.61227 1.22641 2.83154 1.7768 0. 1
 -15 1 1 2 0 0 0.869713 1.61227 2.31958 3.44876 1.7768 0. -1
</event>
<event>
 4 80 1 -1 -1 -1
 11 -1 0 0 0 0 0 0 5 5 0 0. 9.
 -11 -1 0 0 0 0 0 0 -4.1437 4.1437 0 0. 9.
 15 1 1 2 0 0 0.173962 3.17251 3.17255 4.82886 1.7768 0. -1
 -15 1 1 2 0 0 -0.173962 -3.17251 -2.31625 4.31484 1.7768 0. 1
</event>
<event>
 4 80 1 -1 -1 -1
 11 -1 0 0 0 0 0 0 4.95588 4.95588 0 0. 9.
 -11 -1 0 0 0 0 0 0 -5 5 0 0. 9.
 15 1 1 2 0 0 -3.68345 -1.44038 -2.46732 4.98878 1.7768 0. 1
 -15 1 1 2 0 0 3.68345 1.44038 2.4232 4.96711 1.7768 0. -1
</event>
<event>
 4 80 1 -1 -1 -1
 11 -1 0 0 0 0 0 0 4.82495 4.82495 0 0. 9.
 -11 -1 0 0 0 0 0 0 -5 5 0 0. 9.
 15 1 1 2 0 0 3.7542 -2.602 0.232832 4.90677 1.7768 0. 1
 -15 1 1 2 0 0 -3.7542 2.602 -0.407881 4.91818 1.7768 0. -1
</event>
<event>
 4 80 1 -1 -1 -1
 11 -1 0 0 0 0 0 0 5 5 0 0. 9.
 -11 -1 0 0 0 0 0 0 -4.99247 4.99247 0 0. 9.
 15 1 1 2 0 0 1.39427 4.03025 -1.89827 4.9948 1.7768 0. 1
 -15 1 1 2 0 0 -1.39427 -4.03025 1.9058 4.99767 1.7768 0. -1
</event>
<event>
 4 80 1 -1 -1 -1
 11 -1 0 0 0 0 0 0 4.96372 4.96372 0 0. 9.
 -11 -1 0 0 0 0 0 0 -5 5 0 0. 9.
 15 1 1 2 0 0 1.38785 4.01438 -1.92065 4.98879 1.7768 0. -1
 -15 1 1 2 0 0 -1.38785 -4.01438 1.88437 4.97493 1.7768 0. 1
</event>
<event>
 4 80 1 -1 -1 -1
 11 -1 0 0 0 0 0 0 5 5 0 0. 9.
 -11 -1 0 0 0 0 0 0 -5 5 0 0. 9.
 15 1 1 2 0 0 -2.89749 2.78898 2.38084 5 1.7768 0. 1
 -15 1 1 2 0 0 2.89749 -2.78898 -2.38084 5 1.7768 0. -1
</event>
<event>
 4 80 1 -1 -1 -1
 11 -1 0 0 0 0 0 0 5 5 0 0. 9.
 -11 -1 0 0 0 0 0 0 -4.99986 4.99986 0 0. 9.
 15 1 1 2 0 0 1.75437 3.21851 -2.89906 4.99989 1.7768 0. -1
 -15 1 1 2 0 0 -1.75437 -3.21851 2.8992 4.99997 1.7768 0. 1
</event>
<event>
 4 80 1 -1 -1 -1
 11 -1 0 0 0 0 0 0 5 5 0 0. 9.
 -11 -1 0 0 0 0 0 0 -4.99999 4.99999 0 0. 9.
 15 1 1 2 0 0 2.61353 -1.8752 -3.39047 4.99999 1.7768 0. -1
 -15 1 1 2 0 0 -2.61353 1.8752 3.39048 5 1.7768 0. 1
</event>
<event>
 4 80 1 -1 -1 -1
 11 -1 0 0 0 0 0 0 1.07339 1.07339 0 0. 9.
 -11 -1 0 0 0 0 0 0 -5 5 0 0. 9.
 15 1 1 2 0 0 0.353527 -0.443187 -3.76433 4.20111 1.7768 0. 1
 -15 1 1 2 0 0 -0.353527 0.443187 -0.16228 1.87229 1.7768 0. -1
</event>
<event>
 4 80 1 -1 -1 -1
 11 -1 0 0 0 0 0 0 5 5 0 0. 9.
 -11 -1 0 0 0 0 0 0 -4.99994 4.99994 0 0. 9.
 15 1 1 2 0 0 3.53166 2.04606 -2.27659 4.99996 1.7768 0. 1
 -15 1 1 2 0 0 -3.53166 -2.04606 2.27665 4.99998 1.7768 0. -1
</event>
<event>
 4 80 1 -1 -1 -1
 11 -1 0 0 0 0 0 0 4.99998 4.99998 0 0. 9.
 -11 -1 0 0 0 0 0 0 -5 5 0 0. 9.
 15 1 1 2 0 0 -3.85829 -2.61855 0.314611 4.99999 1.7768 0. -1
 -15 1 1 2 0 0 3.85829 2.61855 -0.314632 4.99999 1.7768 0. 1
</event>
<event>
 4 80 1 -1 -1 -1
 11 -1 0 0 0 0 0 0 5 5 0 0. 9.
 -11 -1 0 0 0 0 0 0 -4.99826 4.99826 0 0. 9.
 15 1 1 2 0 0 0.771474 -3.25811 3.26018 4.9997 1.7768 0. -1
 -15 1 1 2 0 0 -0.771474 3.25811 -3.25844 4.99856 1.7768 0. 1
</event>
<event>
 4 80 1 -1 -1 -1
 11 -1 0 0 0 0 0 0 5 5 0 0. 9.
 -11 -1 0 0 0 0 0 0 -5 5 0 0. 9.
 15 1 1 2 0 0 -0.728819 2.20905 4.05354 5 1.7768 0. 1
 -15 1 1 2 0 0 0.728819 -2.20905 -4.05354 5 1.7768 0. -1
</event>
<event>
 4 80 1 -1 -1 -1
 11 -1 0 0 0 0 0 0 4.99858 4.99858 0 0. 9.
 -11 -1 0 0 0 0 0 0 -5 5 0 0. 9.
 15 1 1 2 0 0 4.20049 -1.54777 1.33924 4.9991 1.7768 0. -1
 -15 1 1 2 0 0 -4.20049 1.54777 -1.34066 4.99948 1.7768 0. 1
</event>
<event>
 4 80 1 -1 -1 -1
 11 -1 0 0 0 0 0 0 4.99998 4.99998 0 0. 9.
 -11 -1 0 0 0 0 0 0 -4.99998 4.99998 0 0. 9.
 15 1 1 2 0 0 -1.81356 -4.27909 0.492421 4.99998 1.7768 0. 1
 -15 1 1 2 0 0 1.81356 4.27909 -0.492417 4.99998 1.7768 0. -1
</event>
<event>
 4 80 1 -1 -1 -1
 11 -1 0 0 0 0 0 0 5 5 0 0. 9.
 -11 -1 0 0 0 0 0 0 -3.55365 3.55365 0 0. 9.
 15 1 1 2 0 0 3.48278 0.694844 -0.71097 4.03433 1.7768 0. 1
 -15 1 1 2 0 0 -3.48278 -0.694844 2.15732 4.51933 1.7768 0. -1
</event>
<event>
 4 80 1 -1 -1 -1
 11 -1 0 0 0 0 0 0 5 5 0 0. 9.
 -11 -1 0 0 0 0 0 0 -5 5 0 0. 9.
 15 1 1 2 0 0 0.982226 4.56907 0.032673 5 1.7768 0. -1
 -15 1 1 2 0 0 -0.982226 -4.56907 -0.0326729 5 1.7768 0. 1
</event>
<event>
 4 80 1 -1 -1 -1
 11 -1 0 0 0 0 0 0 5 5 0 0. 9.
 -11 -1 0 0 0 0 0 0 -4.9627 4.9627 0 0. 9.
 15 1 1 2 0 0 1.96211 -2.9621 -2.98668 4.9701 1.7768 0. 1
 -15 1 1 2 0 0 -1.96211 2.9621 3.02398 4.9926 1.7768 0. -1
</event>
<event>
 4 80 1 -1 -1 -1
 11 -1 0 0 0 0 0 0 5 5 0 0. 9.
 -11 -1 0 0 0 0 0 0 -4.83607 4.83607 0 0. 9.
 15 1 1 2 0 0 -1.50685 0.405085 -4.23001 4.84617 1.7768 0. 1
 -15 1 1 2 0 0 1.50685 -0.405085 4.39394 4.9899 1.7768 0. -1
</event>
<event>
 4 80 1 -1 -1 -1
 11 -1 0 0 0 0 0 0 5 5 0 0. 9.
 -11 -1 0 0 0 0 0 0 -4.99999 4.99999 0 0. 9.
 15 1 1 2 0 0 -1.86049 4.04117 1.43169 5 1.7768 0. -1
 -15 1 1 2 0 0 1.86049 -4.04117 -1.43168 5 1.7768 0. 1
</event>
<event>
 4 80 1 -1 -1 -1
 11 -1 0 0 0 0 0 0 5 5 0 0. 9.
 -11 -1 0 0 0 0 0 0 -4.99996 4.99996 0 0. 9.
 15 1 1 2 0 0 1.30916 0.925192 4.39003 5 1.7768 0. 1
 -15 1 1 2 0 0 -1.30916 -0.925192 -4.38999 4.99997 1.7768 0. -1
</event>
<event>
 4 80 1 -1 -1 -1
 11 -1 0 0 0 0 0 0 4.39438 4.39438 0 0. 9.
 -11 -1 0 0 0 0 0 0 -5 5 0 0. 9.
 15 1 1 2 0 0 -3.92056 -1.63625 -1.1799 4.75373 1.7768 0. 1
 -15 1 1 2 0 0 3.92056 1.63625 0.574286 4.64065 1.7768 0. -1
</event>
<event>
 4 80 1 -1 -1 -1
 11 -1 0 0 0 0 0 0 5 5 0 0. 9.
 -11 -1 0 0 0 0 0 0 -4.983 4.983 0 0. 9.
 15 1 1 2 0 0 4.29063 1.79937 0.340132 4.99206 1.7768 0. 1
 -15 1 1 2 0 0 -4.29063 -1.79937 -0.323131 4.99093 1.7768 0. -1
</event>
<event>
 4 80 1 -1 -1 -1
 11 -1 0 0 0 0 0 0 5 5 0 0. 9.
 -11 -1 0 0 0 0 0 0 -4.99951 4.99951 0 0. 9.
 15 1 1 2 0 0 3.7392 -2.79235 -0.24669 4.99974 1.7768 0. 1
 -15 1 1 2 0 0 -3.7392 2.79235 0.247181 4.99977 1.7768 0. -1
</event>
<event>
 4 80 1 -1 -1 -1
 11 -1 0 0 0 0 0 0 5 5 0 0. 9.
 -11 -1 0 0 0 0 0 0 -4.99888 4.99888 0 0. 9.
 15 1 1 2 0 0 -1.61719 0.182852 -4.37984 4.99895 1.7768 0. 1
 -15 1 1 2 0 0 1.61719 -0.182852 4.38096 4.99993 1.7768 0. -1
</event>
<event>
 4 80 1 -1 -1 -1
 11 -1 0 0 0 0 0 0 4.99998 4.99998 0 0. 9.
 -11 -1 0 0 0 0 0 0 -4.99918 4.99918 0 0. 9.
 15 1 1 2 0 0 -3.08361 0.743577 3.43209 4.99985 1.7768 0. -1
 -15 1 1 2 0 0 3.08361 -0.743577 -3.4313 4.99931 1.7768 0. 1
</event>
<event>
 4 80 1 -1 -1 -1
 11 -1 0 0 0 0 0 0 2.75303 2.75303 0 0. 9.
 -11 -1 0 0 0 0 0 0 -5 5 0 0. 9.
 15 1 1 2 0 0 -0.745729 -2.23266 1.22835 3.19491 1.7768 0. 1
 -15 1 1 2 0 0 0.745729 2.23266 -3.47532 4.55812 1.7768 0. -1
</event>
<event>
 4 80 1 -1 -1 -1
 11 -1 0 0 0 0 0 0 5 5 0 0. 9.
 -11 -1 0 0 0 0 0 0 -4.99981 4.99981 0 0. 9.
 15 1 1 2 0 0 -4.00918 -1.05251 2.15881 4.99995 1.7768 0. -1
 -15 1 1 2 0 0 4.00918 1.05251 -2.15862 4.99987 1.7768 0. 1
</event>
<event>
 4 80 1 -1 -1 -1
 11 -1 0 0 0 0 0 0 5 5 0 0. 9.
 -11 -1 0 0 0 0 0 0 -1.23726 1.23726 0 0. 9.
 15 1 1 2 0 0 -1.39001 0.396942 3.09631 3.85156 1.7768 0. 1
 -15 1 1 2 0 0 1.39001 -0.396942 0.666429 2.3857 1.7768 0. -1
</event>
<event>
 4 80 1 -1 -1 -1
 11 -1 0 0 0 0 0 0 4.99838 4.99838 0 0. 9.
 -11 -1 0 0 0 0 0 0 -4.99974 4.99974 0 0. 9.
 15 1 1 2 0 0 -1.58041 -3.21585 2.99823 4.99865 1.7768 0. 1
 -15 1 1 2 0 0 1.58041 3.21585 -2.99959 4.99947 1.7768 0. -1
</event>
<event>
 4 80 1 -1 -1 -1
 11 -1 0 0 0 0 0 0 4.99998 4.99998 0 0. 9.
 -11 -1 0 0 0 0 0 0 -1.8629 1.8629 0 0. 9.
 15 1 1 2 0 0 -0.78588 1.20676 -0.703316 2.39296 1.7768 0. -1
 -15 1 1 2 0 0 0.78588 -1.20676 3.84039 4.46992 1.7768 0. 1
</event>
<event>
 4 80 1 -1 -1 -1
 11 -1 0 0 0 0 0 0 4.99497 4.99497 0 0. 9.
 -11 -1 0 0 0 0 0 0 -4.97044 4.97044 0 0. 9.
 15 1 1 2 0 0 -3.19942 -3.37389 -0.211402 4.98215 1.7768 0. 1
 -15 1 1 2 0 0 3.19942 3.37389 0.235927 4.98325 1.7768 0. -1
</event>
<event>
 4 80 1 -1 -1 -1
 11 -1 0 0 0 0 0 0 5 5 0 0. 9.
 -11 -1 0 0 0 0 0 0 -5 5 0 0. 9.
 15 1 1 2 0 0 2.63011 -3.52746 -1.57536 5 1.7768 0. -1
 -15 1 1 2 0 0 -2.63011 3.52746 1.57536 5 1.7768 0. 1
</event>
<event>
 4 80 1 -1 -1 -1
 11 -1 0 0 0 0 0 0 5 5 0 0. 9.
 -11 -1 0 0 0 0 0 0 -4.99996 4.99996 0 0. 9.
 15 1 1 2 0 0 4.44575 -0.922697 1.10728 4.99998 1.7768 0. 1
 -15 1 1 2 0 0 -4.44575 0.922697 -1.10723 4.99997 1.7768 0. -1
</event>
<event>
 4 80 1 -1 -1 -1
 11 -1 0 0 0 0 0 0 5 5 0 0. 9.
 -11 -1 0 0 0 0 0 0 -5 5 0 0. 9.
 15 1 1 2 0 0 -2.11194 1.76917 3.77518 5 1.7768 0. 1
 -15 1 1 2 0 0 2.11194 -1.76917 -3.77518 5 1.7768 0. -1
</event>
<event>
 4 80 1 -1 -1 -1
 11 -1 0 0 0 0 0 0 5 5 0 0. 9.
 -11 -1 0 0 0 0 0 0 -2.59337 2.59337 0 0. 9.
 15 1 1 2 0 0 2.26024 1.63437 -0.298636 3.32066 1.7768 0. 1
 -15 1 1 2 0 0 -2.26024 -1.63437 2.70527 4.27271 1.7768 0. -1
</event>
<event>
 4 80 1 -1 -1 -1
 11 -1 0 0 0 0 0 0 1.56674 1.56674 0 0. 9.
 -11 -1 0 0 0 0 0 0 -4.99998 4.99998 0 0. 9.
 15 1 1 2 0 0 -1.69349 -0.183891 -0.154042 2.46641 1.7768 0. -1
 -15 1 1 2 0 0 1.69349 0.183891 -3.2792 4.10032 1.7768 0. 1
</event>
<event>
 4 80 1 -1 -1 -1
 11 -1 0 0 0 0 0 0 5 5 0 0. 9.
 -11 -1 0 0 0 0 0 0 -5 5 0 0. 9.
 15 1 1 2 0 0 -2.11134 4.16888 0.070427 5 1.7768 0. -1
 -15 1 1 2 0 0 2.11134 -4.16888 -0.070427 5 1.7768 0. 1
</event>
<event>
 4 80 1 -1 -1 -1
 11 -1 0 0 0 0 0 0 5 5 0 0. 9.
 -11 -1 0 0 0 0 0 0 -4.75308 4.75308 0 0. 9.
 15 1 1 2 0 0 1.6231 2.43376 -3.34896 4.78863 1.7768 0. -1
 -15 1 1 2 0 0 -1.6231 -2.43376 3.59589 4.96445 1.7768 0. 1
</event>
<event>
 4 80 1 -1 -1 -1
 11 -1 0 0 0 0 0 0 5 5 0 0. 9.
 -11 -1 0 0 0 0 0 0 -5 5 0 0. 9.
 15 1 1 2 0 0 -1.74648 -3.99533 1.68208 5 1.7768 0. 1
 -15 1 1 2 0 0 1.74648 3.99533 -1.68208 5 1.7768 0. -1
</event>
<event>
 4 80 1 -1 -1 -1
 11 -1 0 0 0 0 0 0 4.76162 4.76162 0 0. 9.
 -11 -1 0 0 0 0 0 0 -5 5 0 0. 9.
 15 1 1 2 0 0 2.74522 3.5512 0.590319 4.86348 1.7768 0. 1
 -15 1 1 2 0 0 -2.74522 -3.5512 -0.828699 4.89814 1.7768 0. -1
</event>
<event>
 4 80 1 -1 -1 -1
 11 -1 0 0 0 0 0 0 5 5 0 0. 9.
 -11 -1 0 0 0 0 0 0 -5 5 0 0. 9.
 15 1 1 2 0 0 -3.4167 0.5036 -3.14878 5 1.7768 0. -1
 -15 1 1 2 0 0 3.4167 -0.5036 3.14878 5 1.7768 0. 1
</event>
<event>
 4 80 1 -1 -1 -1
 11 -1 0 0 0 0 0 0 2.08307 2.08307 0 0. 9.
 -11 -1 0 0 0 0 0 0 -5 5 0 0. 9.
 15 1 1 2 0 0 0.806024 1.61803 0.733518 2.63884 1.7768 0. -1
 -15 1 1 2 0 0 -0.806024 -1.61803 -3.65045 4.44423 1.7768 0. 1
</event>
<event>
 4 80 1 -1 -1 -1
 11 -1 0 0 0 0 0 0 4.99983 4.99983 0 0. 9.
 -11 -1 0 0 0 0 0 0 -5 5 0 0. 9.
 15 1 1 2 0 0 1.10676 3.34712 -3.06819 4.99997 1.7768 0. 1
 -15 1 1 2 0 0 -1.10676 -3.34712 3.06802 4.99986 1.7768 0. -1
</event>
<event>
 4 80 1 -1 -1 -1
 11 -1 0 0 0 0 0 0 4.82701 4.82701 0 0. 9.
 -11 -1 0 0 0 0 0 0 -4.99427 4.99427 0 0. 9.
 15 1 1 2 0 0 -3.66275 1.02082 2.46465 4.86725 1.7768 0. -1
 -15 1 1 2 0 0 3.66275 -1.02082 -2.6319 4.95404 1.7768 0. 1
</event>
<event>
 4 80 1 -1 -1 -1
 11 -1 0 0 0 0 0 0 5 5 0 0. 9.
 -11 -1 0 0 0 0 0 0 -5 5 0 0. 9.
 15 1 1 2 0 0 -0.328309 -2.02296 -4.20025 5 1.7768 0. 1
 -15 1 1 2 0 0 0.328309 2.02296 4.20025 5 1.7768 0. -1
</event>
<event>
 4 80 1 -1 -1 -1
 11 -1 0 0 0 0 0 0 4.99999 4.99999 0 0. 9.
 -11 -1 0 0 0 0 0 0 -5 5 0 0. 9.
 15 1 1 2 0 0 -3.52221 2.94962 -0.857905 5 1.7768 0. 1
 -15 1 1 2 0 0 3.52221 -2.94962 0.857899 5 1.7768 0. -1
</event>
<event>
 4 80 1 -1 -1 -1
 11 -1 0 0 0 0 0 0 4.8583 4.8583 0 0. 9.
 -11 -1 0 0 0 0 0 0 -5 5 0 0. 9.
 15 1 1 2 0 0 1.04292 -0.00556495 4.4069 4.86479 1.7768 0. -1
 -15 1 1 2 0 0 -1.04292 0.00556495 -4.5486 4.99351 1.7768 0. 1
</event>
<event>
 4 80 1 -1 -1 -1
 11 -1 0 0 0 0 0 0 4.99978 4.99978 0 0. 9.
 -11 -1 0 0 0 0 0 0 -5 5 0 0. 9.
 15 1 1 2 0 0 -1.27051 0.00349645 -4.49755 4.99999 1.7768 0. 1
 -15 1 1 2 0 0 1.27051 -0.00349645 4.49733 4.99979 1.7768 0. -1
</event>
<event>
 4 80 1 -1 -1 -1
 11 -1 0 0 0 0 0 0 5 5 0 0. 9.
 -11 -1 0 0 0 0 0 0 -4.95627 4.95627 0 0. 9.
 15 1 1 2 0 0 4.54794 0.916653 -0.29372 4.97675 1.7768 0. -1
 -15 1 1 2 0 0 -4.54794 -0.916653 0.337454 4.97952 1.7768 0. 1
</event>
<event>
 4 80 1 -1 -1 -1
 11 -1 0 0 0 0 0 0 4.99981 4.99981 0 0. 9.
 -11 -1 0 0 0 0 0 0 -5 5 0 0. 9.
 15 1 1 2 0 0 -0.765332 0.163147 -4.60759 4.99999 1.7768 0. -1
 -15 1 1 2 0 0 0.765332 -0.163147 4.6074 4.99982 1.7768 0. 1
</event>
<event>
 4 80 1 -1 -1 -1
 11 -1 0 0 0 0 0 0 5 5 0 0. 9.
 -11 -1 0 0 0 0 0 0 -5 5 0 0. 9.
 15 1 1 2 0 0 -2.48031 3.34145 2.12722 5 1.7768 0. -1
 -15 1 1 2 0 0 2.48031 -3.34145 -2.12722 5 1.7768 0. 1
</event>
<event>
 4 80 1 -1 -1 -1
 11 -1 0 0 0 0 0 0 5 5 0 0. 9.
 -11 -1 0 0 0 0 0 0 -5 5 0 0. 9.
 15 1 1 2 0 0 -4.24135 -1.67119 -1.02972 5 1.7768 0. 1
 -15 1 1 2 0 0 4.24135 1.67119 1.02972 5 1.7768 0. -1
</event>
<event>
 4 80 1 -1 -1 -1
 11 -1 0 0 0 0 0 0 3.70401 3.70401 0 0. 9.
 -11 -1 0 0 0 0 0 0 -4.99951 4.99951 0 0. 9.
 15 1 1 2 0 0 -1.06832 -1.11501 -4.29054 4.89398 1.7768 0. -1
 -15 1 1 2 0 0 1.06832 1.11501 2.99504 3.80954 1.7768 0. 1
</event>
<event>
 4 80 1 -1 -1 -1
 11 -1 0 0 0 0 0 0 4.99396 4.99396 0 0. 9.
 -11 -1 0 0 0 0 0 0 -4.99959 4.99959 0 0. 9.
 15 1 1 2 0 0 -3.20574 2.8886 1.78303 4.99577 1.7768 0. 1
 -15 1 1 2 0 0 3.20574 -2.8886 -1.78866 4.99778 1.7768 0. -1
</event>
<event>
 4 80 1 -1 -1 -1
 11 -1 0 0 0 0 0 0 5 5 0 0. 9.
 -11 -1 0 0 0 0 0 0 -4.99513 4.99513 0 0. 9.
 15 1 1 2 0 0 4.15513 -1.85547 1.05602 4.99808 1.7768 0. 1
 -15 1 1 2 0 0 -4.15513 1.85547 -1.05115 4.99705 1.7768 0. -1
</event>
<event>
 4 80 1 -1 -1 -1
 11 -1 0 0 0 0 0 0 5 5 0 0. 9.
 -11 -1 0 0 0 0 0 0 -4.99989 4.99989 0 0. 9.
 15 1 1 2 0 0 -1.2842 3.08961 -3.2629 4.99991 1.7768 0. -1
 -15 1 1 2 0 0 1.2842 -3.08961 3.26301 4.99998 1.7768 0. 1
</event>
<event>
 4 80 1 -1 -1 -1
 11 -1 0 0 0 0 0 0 5 5 0 0. 9.
 -11 -1 0 0 0 0 0 0 -5 5 0 0. 9.
 15 1 1 2 0 0 -1.65847 -4.07856 -1.56752 5 1.7768 0. 1
 -15 1 1 2 0 0 1.65847 4.07856 1.56752 5 1.7768 0. -1
</event>
<event>
 4 80 1 -1 -1 -1
 11 -1 0 0 0 0 0 0 5 5 0 0. 9.
 -11 -1 0 0 0 0 0 0 -4.85645 4.85645 0 0. 9.
 15 1 1 2 0 0 -1.07214 -1.78657 4.16894 4.9879 1.7768 0. 1
 -15 1 1 2 0 0 1.07214 1.78657 -4.02539 4.86855 1.7768 0. -1
</event>
<event>
 4 80 1 -1 -1 -1
 11 -1 0 0 0 0 0 0 4.99992 4.99992 0 0. 9.
 -11 -1 0 0 0 0 0 0 -5 5 0 0. 9.
 15 1 1 2 0 0 2.93588 0.155889 -3.63297 4.99999 1.7768 0. 1
 -15 1 1 2 0 0 -2.93588 -0.155889 3.63289 4.99993 1.7768 0. -1
</event>
<event>
 4 80 1 -1 -1 -1
 11 -1 0 0 0 0 0 0 5 5 0 0. 9.
 -11 -1 0 0 0 0 0 0 -4.98488 4.98488 0 0. 9.
 15 1 1 2 0 0 1.74707 -4.00817 -1.62001 4.98997 1.7768 0. -1
 -15 1 1 2 0 0 -1.74707 4.00817 1.63513 4.9949 1.7768 0. 1
</event>
<event>
 4 80 1 -1 -1 -1
 11 -1 0 0 0 0 0 0 4.84132 4.84132 0 0. 9.
 -11 -1 0 0 0 0 0 0 -5 5 0 0. 9.
 15 1 1 2 0 0 -2.08317 4.0695 0.306029 4.91445 1.7768 0. -1
 -15 1 1 2 0 0 2.08317 -4.0695 -0.464706 4.92687 1.7768 0. 1
</event>
<event>
 4 80 1 -1 -1 -1
 11 -1 0 0 0 0 0 0 3.88831 3.88831 0 0. 9.
 -11 -1 0 0 0 0 0 0 -5 5 0 0. 9.
 15 1 1 2 0 0 3.22818 -0.775445 1.75608 4.155 1.7768 0. -1
 -15 1 1 2 0 0 -3.22818 0.775445 -2.86777 4.73332 1.7768 0. 1
</event>
<event>
 4 80 1 -1 -1 -1
 11 -1 0 0 0 0 0 0 5 5 0 0. 9.
 -11 -1 0 0 0 0 0 0 -4.99991 4.99991 0 0. 9.
 15 1 1 2 0 0 0.0285349 -4.18328 2.08359 4.99997 1.7768 0. 1
 -15 1 1 2 0 0 -0.0285349 4.18328 -2.08351 4.99994 1.7768 0. -1
</event>
<event>
 4 80 1 -1 -1 -1
 11 -1 0 0 0 0 0 0 4.87021 4.87021 0 0. 9.
 -11 -1 0 0 0 0 0 0 -5 5 0 0. 9.
 15 1 1 2 0 0 -0.438664 4.47732 -1.04197 4.94795 1.7768 0. 1
 -15 1 1 2 0 0 0.438664 -4.47732 0.912172 4.92225 1.7768 0. -1
</event>
<event>
 4 80 1 -1 -1 -1
 11 -1 0 0 0 0 0 0 5 5 0 0. 9.
 -11 -1 0 0 0 0 0 0 -4.99831 4.99831 0 0. 9.
 15 1 1 2 0 0 4.52942 0.067963 1.14695 4.99935 1.7768 0. -1
 -15 1 1 2 0 0 -4.52942 -0.067963 -1.14526 4.99896 1.7768 0. 1
</event>
<event>
 4 80 1 -1 -1 -1
 11 -1 0 0 0 0 0 0 5 5 0 0. 9.
 -11 -1 0 0 0 0 0 0 -5 5 0 0. 9.
 15 1 1 2 0 0 3.18073 -2.575 2.25713 5 1.7768 0. -1
 -15 1 1 2 0 0 -3.18073 2.575 -2.25713 5 1.7768 0. 1
</event>
<event>
 4 80 1 -1 -1 -1
 11 -1 0 0 0 0 0 0 5 5 0 0. 9.
 -11 -1 0 0 0 0 0 0 -5 5 0 0. 9.
 15 1 1 2 0 0 -1.62954 -0.583704 4.34122 5 1.7768 0. 1
 -15 1 1 2 0 0 1.62954 0.583704 -4.34122 5 1.7768 0. -1
</event>
<event>
 4 80 1 -1 -1 -1
 11 -1 0 0 0 0 0 0 4.9937 4.9937 0 0. 9.
 -11 -1 0 0 0 0 0 0 -5 5 0 0. 9.
 15 1 1 2 0 0 0.613657 -0.541216 4.59481 4.99395 1.7768 0. -1
 -15 1 1 2 0 0 -0.613657 0.541216 -4.60112 4.99975 1.7768 0. 1
</event>
<event>
 4 80 1 -1 -1 -1
 11 -1 0 0 0 0 0 0 4.99999 4.99999 0 0. 9.
 -11 -1 0 0 0 0 0 0 -4.99979 4.99979 0 0. 9.
 15 1 1 2 0 0 -3.03167 -3.54055 -0.338634 4.99989 1.7768 0. 1
 -15 1 1 2 0 0 3.03167 3.54055 0.338832 4.9999 1.7768 0. -1
</event>
<event>
 4 80 1 -1 -1 -1
 11 -1 0 0 0 0 0 0 5 5 0 0. 9.
 -11 -1 0 0 0 0 0 0 -5 5 0 0. 9.
 15 1 1 2 0 0 -2.86885 1.82012 3.20923 5 1.7768 0. -1
 -15 1 1 2 0 0 2.86885 -1.82012 -3.20923 5 1.7768 0. 1
</event>
<event>
 4 80 1 -1 -1 -1
 11 -1 0 0 0 0 0 0 4.63424 4.63424 0 0. 9.
 -11 -1 0 0 0 0 0 0 -5 5 0 0. 9.
 15 1 1 2 0 0 1.53041 2.77087 -3.34643 4.93722 1.7768 0. 1
 -15 1 1 2 0 0 -1.53041 -2.77087 2.98067 4.69702 1.7768 0. -1
</event>
<event>
 4 80 1 -1 -1 -1
 11 -1 0 0 0 0 0 0 5 5 0 0. 9.
 -11 -1 0 0 0 0 0 0 -4.99982 4.99982 0 0. 9.
 15 1 1 2 0 0 3.7826 1.89188 -1.9884 4.99987 1.7768 0. -1
 -15 1 1 2 0 0 -3.7826 -1.89188 1.98859 4.99995 1.7768 0. 1
</event>
<event>
 4 80 1 -1 -1 -1
 11 -1 0 0 0 0 0 0 4.9641 4.9641 0 0. 9.
 -11 -1 0 0 0 0 0 0 -5 5 0 0. 9.
 15 1 1 2 0 0 4.02522 0.747467 -2.23194 4.99003 1.7768 0. 1
 -15 1 1 2 0 0 -4.02522 -0.747467 2.19604 4.97407 1.7768 0. -1
</event>
<event>
 4 80 1 -1 -1 -1
 11 -1 0 0 0 0 0 0 4.99995 4.99995 0 0. 9.
 -11 -1 0 0 0 0 0 0 -4.93302 4.93302 0 0. 9.
 15 1 1 2 0 0 -0.932513 -2.81756 3.5971 4.9905 1.7768 0. 1
 -15 1 1 2 0 0 0.932513 2.81756 -3.53017 4.94247 1.7768 0. -1
</event>
<event>
 4 80 1 -1 -1 -1
 11 -1 0 0 0 0 0 0 4.99997 4.99997 0 0. 9.
 -11 -1 0 0 0 0 0 0 -5 5 0 0. 9.
 15 1 1 2 0 0 -1.63448 -3.9922 -1.79806 4.99999 1.7768 0. 1
 -15 1 1 2 0 0 1.63448 3.9922 1.79803 4.99998 1.7768 0. -1
</event>
<event>
 4 80 1 -1 -1 -1
 11 -1 0 0 0 0 0 0 4.99862 4.99862 0 0. 9.
 -11 -1 0 0 0 0 0 0 -3.86978 3.86978 0 0. 9.
 15 1 1 2 0 0 3.3475 -1.09737 -1.39468 4.18483 1.7768 0. 1
 -15 1 1 2 0 0 -3.3475 1.09737 2.52352 4.68357 1.7768 0. -1
</event>
<event>
 4 80 1 -1 -1 -1
 11 -1 0 0 0 0 0 0 5 5 0 0. 9.
 -11 -1 0 0 0 0 0 0 -4.98677 4.98677 0 0. 9.
 15 1 1 2 0 0 1.5671 4.06722 1.67336 4.99559 1.7768 0. -1
 -15 1 1 2 0 0 -1.5671 -4.06722 -1.66012 4.99117 1.7768 0. 1
</event>
<event>
 4 80 1 -1 -1 -1
 11 -1 0 0 0 0 0 0 5 5 0 0. 9.
 -11 -1 0 0 0 0 0 0 -4.99739 4.99739 0 0. 9.
 15 1 1 2 0 0 -2.19338 1.94559 3.63902 4.99964 1.7768 0. -1
 -15 1 1 2 0 0 2.19338 -1.94559 -3.63641 4.99775 1.7768 0. 1
</event>
<event>
 4 80 1 -1 -1 -1
 11 -1 0 0 0 0 0 0 5 5 0 0. 9.
 -11 -1 0 0 0 0 0 0 -5 5 0 0. 9.
 15 1 1 2 0 0 2.99468 -3.27174 -1.47304 5 1.7768 0. -1
 -15 1 1 2 0 0 -2.99468 3.27174 1.47304 5 1.7768 0. 1
</event>
<event>
 4 80 1 -1 -1 -1
 11 -1 0 0 0 0 0 0 4.9999 4.9999 0 0. 9.
 -11 -1 0 0 0 0 0 0 -4.98744 4.98744 0 0. 9.
 15 1 1 2 0 0 0.555335 1.60678 -4.3399 4.98825 1.7768 0. 1
 -15 1 1 2 0 0 -0.555335 -1.60678 4.35236 4.99909 1.7768 0. -1
</event>
<event>
 4 80 1 -1 -1 -1
 11 -1 0 0 0 0 0 0 5 5 0 0. 9.
 -11 -1 0 0 0 0 0 0 -4.97454 4.97454 0 0. 9.
 15 1 1 2 0 0 -4.15267 0.62729 2.03185 4.99242 1.7768 0. -1
 -15 1 1 2 0 0 4.15267 -0.62729 -2.00639 4.98212 1.7768 0. 1
</event>
<event>
 4 80 1 -1 -1 -1
 11 -1 0 0 0 0 0 0 4.94069 4.94069 0 0. 9.
 -11 -1 0 0 0 0 0 0 -4.42978 4.42978 0 0. 9.
 15 1 1 2 0 0 -1.03554 -4.11541 -0.59404 4.63892 1.7768 0. 1
 -15 1 1 2 0 0 1.03554 4.11541 1.10496 4.73155 1.7768 0. -1
</event>
<event>
 4 80 1 -1 -1 -1
 11 -1 0 0 0 0 0 0 4.77827 4.77827 0 0. 9.
 -11 -1 0 0 0 0 0 0 -4.99999 4.99999 0 0. 9.
 15 1 1 2 0 0 -2.82742 -1.59735 3.08178 4.81674 1.7768 0. -1
 -15 1 1 2 0 0 2.82742 1.59735 -3.3035 4.96152 1.7768 0. 1
</event>
<event>
 4 80 1 -1 -1 -1
 11 -1 0 0 0 0 0 0 5 5 0 0. 9.
 -11 -1 0 0 0 0 0 0 -4.99973 4.99973 0 0. 9.
 15 1 1 2 0 0 0.310909 -0.708449 4.60908 4.99999 1.7768 0. 1
 -15 1 1 2 0 0 -0.310909 0.708449 -4.60881 4.99974 1.7768 0. -1
</event>
<event>
 4 80 1 -1 -1 -1
 11 -1 0 0 0 0 0 0 5 5 0 0. 9.
 -11 -1 0 0 0 0 0 0 -5 5 0 0. 9.
 15 1 1 2 0 0 -3.62459 0.882387 -2.81531 5 1.7768 0. 1
 -15 1 1 2 0 0 3.62459 -0.882387 2.81531 5 1.7768 0. -1
</event>
<event>
 4 80 1 -1 -1 -1
 11 -1 0 0 0 0 0 0 5 5 0 0. 9.
 -11 -1 0 0 0 0 0 0 -4.99995 4.99995 0 0. 9.
 15 1 1 2 0 0 -2.21054 -3.92191 1.25471 4.99998 1.7768 0. 1
 -15 1 1 2 0 0 2.21054 3.92191 -1.25466 4.99997 1.7768 0. -1
</event>
<event>
 4 80 1 -1 -1 -1
 11 -1 0 0 0 0 0 0 5 5 0 0. 9.
 -11 -1 0 0 0 0 0 0 -5 5 0 0. 9.
 15 1 1 2 0 0 2.36236 4.03256 0.00361897 5 1.7768 0. 1
 -15 1 1 2 0 0 -2.36236 -4.03256 -0.00361825 5 1.7768 0. -1
</event>
<event>
 4 80 1 -1 -1 -1
 11 -1 0 0 0 0 0 0 4.96601 4.96601 0 0. 9.
 -11 -1 0 0 0 0 0 0 -5 5 0 0. 9.
 15 1 1 2 0 0 3.36882 -1.73839 2.68513 4.97379 1.7768 0. 1
 -15 1 1 2 0 0 -3.36882 1.73839 -2.71912 4.99222 1.7768 0. -1
</event>
<event>
 4 80 1 -1 -1 -1
 11 -1 0 0 0 0 0 0 4.99961 4.99961 0 0. 9.
 -11 -1 0 0 0 0 0 0 -5 5 0 0. 9.
 15 1 1 2 0 0 2.54981 2.87707 -2.65749 4.99991 1.7768 0. 1
 -15 1 1 2 0 0 -2.54981 -2.87707 2.6571 4.9997 1.7768 0. -1
</event>
<event>
 4 80 1 -1 -1 -1
 11 -1 0 0 0 0 0 0 4.99883 4.99883 0 0. 9.
 -11 -1 0 0 0 0 0 0 -5 5 0 0. 9.
 15 1 1 2 0 0 2.69246 0.930483 3.70364 4.99898 1.7768 0. -1
 -15 1 1 2 0 0 -2.69246 -0.930483 -3.70481 4.99985 1.7768 0. 1
</event>
<event>
 4 80 1 -1 -1 -1
 11 -1 0 0 0 0 0 0 5 5 0 0. 9.
 -11 -1 0 0 0 0 0 0 -5 5 0 0. 9.
 15 1 1 2 0 0 -0.800757 0.611484 4.56368 5 1.7768 0. 1
 -15 1 1 2 0 0 0.800757 -0.611484 -4.56368 5 1.7768 0. -1
</event>
<event>
 4 80 1 -1 -1 -1
 11 -1 0 0 0 0 0 0 4.84172 4.84172 0 0. 9.
 -11 -1 0 0 0 0 0 0 -5 5 0 0. 9.
 15 1 1 2 0 0 -0.28357 -3.46788 2.91194 4.87276 1.7768 0. 1
 -15 1 1 2 0 0 0.28357 3.46788 -3.07022 4.96896 1.7768 0. -1
</event>
<event>
 4 80 1 -1 -1 -1
 11 -1 0 0 0 0 0 0 5 5 0 0. 9.
 -11 -1 0 0 0 0 0 0 -4.99999 4.99999 0 0. 9.
 15 1 1 2 0 0 4.0864 0.524385 2.2065 5 1.7768 0. 1
 -15 1 1 2 0 0 -4.0864 -0.524385 -2.20649 4.99999 1.7768 0. -1
</event>
<event>
 4 80 1 -1 -1 -1
 11 -1 0 0 0 0 0 0 5 5 0 0. 9.
 -11 -1 0 0 0 0 0 0 -5 5 0 0. 9.
 15 1 1 2 0 0 -3.99417 1.9212 -1.48253 5 1.7768 0. 1
 -15 1 1 2 0 0 3.99417 -1.9212 1.48253 5 1.7768 0. -1
</event>
<event>
 4 80 1 -1 -1 -1
 11 -1 0 0 0 0 0 0 4.95011 4.95011 0 0. 9.
 -11 -1 0 0 0 0 0 0 -5 5 0 0. 9.
 15 1 1 2 0 0 -0.989745 4.38704 -1.19421 4.98092 1.7768 0. -1
 -15 1 1 2 0 0 0.989745 -4.38704 1.14432 4.96919 1.7768 0. 1
</event>
<event>
 4 80 1 -1 -1 -1
 11 -1 0 0 0 0 0 0 5 5 0 0. 9.
 -11 -1 0 0 0 0 0 0 -5 5 0 0. 9.
 15 1 1 2 0 0 0.709361 3.84336 2.56274 5 1.7768 0. 1
 -15 1 1 2 0 0 -0.709361 -3.84336 -2.56274 5 1.7768 0. -1
</event>
<event>
 4 80 1 -1 -1 -1
 11 -1 0 0 0 0 0 0 5 5 0 0. 9.
 -11 -1 0 0 0 0 0 0 -5 5 0 0. 9.
 15 1 1 2 0 0 1.56508 1.22098 4.23107 5 1.7768 0. 1
 -15 1 1 2 0 0 -1.56508 -1.22098 -4.23107 5 1.7768 0. -1
</event>
<event>
 4 80 1 -1 -1 -1
 11 -1 0 0 0 0 0 0 4.9921 4.9921 0 0. 9.
 -11 -1 0 0 0 0 0 0 -4.9998 4.9998 0 0. 9.
 15 1 1 2 0 0 1.60191 -3.62061 2.4714 4.99404 1.7768 0. 1
 -15 1 1 2 0 0 -1.60191 3.62061 -2.47911 4.99786 1.7768 0. -1
</event>
<event>
 4 80 1 -1 -1 -1
 11 -1 0 0 0 0 0 0 5 5 0 0. 9.
 -11 -1 0 0 0 0 0 0 -4.99991 4.99991 0 0. 9.
 15 1 1 2 0 0 3.76051 -1.43977 2.37228 4.99998 1.7768 0. 1
 -15 1 1 2 0 0 -3.76051 1.43977 -2.37219 4.99993 1.7768 0. -1
</event>
<event>
 4 80 1 -1 -1 -1
 11 -1 0 0 0 0 0 0 4.99916 4.99916 0 0. 9.
 -11 -1 0 0 0 0 0 0 -4.99993 4.99993 0 0. 9.
 15 1 1 2 0 0 -1.05275 0.4709 -4.52893 4.9999 1.7768 0. -1
 -15 1 1 2 0 0 1.05275 -0.4709 4.52815 4.99919 1.7768 0. 1
</event>
<event>
 4 80 1 -1 -1 -1
 11 -1 0 0 0 0 0 0 5 5 0 0. 9.
 -11 -1 0 0 0 0 0 0 -1.6862 1.6862 0 0. 9.
 15 1 1 2 0 0 -1.01741 0.402609 3.9814 4.49516 1.7768 0. -1
 -15 1 1 2 0 0 1.01741 -0.402609 -0.667594 2.19104 1.7768 0. 1
</event>
<event>
 4 80 1 -1 -1 -1
 11 -1 0 0 0 0 0 0 5 5 0 0. 9.
 -11 -1 0 0 0 0 0 0 -4.96628 4.96628 0 0. 9.
 15 1 1 2 0 0 -1.70023 -4.32565 -0.250812 4.98223 1.7768 0. -1
 -15 1 1 2 0 0 1.70023 4.32565 0.284536 4.98404 1.7768 0. 1
</event>
<event>
 4 80 1 -1 -1 -1
 11 -1 0 0 0 0 0 0 5 5 0 0. 9.
 -11 -1 0 0 0 0 0 0 -4.93664 4.93664 0 0. 9.
 15 1 1 2 0 0 4.42486 -0.466702 -1.28298 4.95994 1.7768 0. -1
 -15 1 1 2 0 0 -4.42486 0.466702 1.34634 4.9767 1.7768 0. 1
</event>
<event>
 4 80 1 -1 -1 -1
 11 -1 0 0 0 0 0 0 5 5 0 0. 9.
 -11 -1 0 0 0 0 0 0 -5 5 0 0. 9.
 15 1 1 2 0 0 -0.267232 4.54708 1.0464 5 1.7768 0. 1
 -15 1 1 2 0 0 0.267232 -4.54708 -1.0464 5 1.7768 0. -1
</event>
<event>
 4 80 1 -1 -1 -1
 11 -1 0 0 0 0 0 0 5 5 0 0. 9.
 -11 -1 0 0 0 0 0 0 -4.99982 4.99982 0 0. 9.
 15 1 1 2 0 0 1.6636 2.81378 3.34021 4.99997 1.7768 0. -1
 -15 1 1 2 0 0 -1.6636 -2.81378 -3.34003 4.99985 1.7768 0. 1
</event>
<event>
 4 80 1 -1 -1 -1
 11 -1 0 0 0 0 0 0 5 5 0 0. 9.
 -11 -1 0 0 0 0 0 0 -5 5 0 0. 9.
 15 1 1 2 0 0 -0.883996 0.957102 -4.48829 5 1.7768 0. 1
 -15 1 1 2 0 0 0.883996 -0.957102 4.48829 5 1.7768 0. -1
</event>
<event>
 4 80 1 -1 -1 -1
 11 -1 0 0 0 0 0 0 5 5 0 0. 9.
 -11 -1 0 0 0 0 0 0 -4.84834 4.84834 0 0. 9.
 15 1 1 2 0 0 0.0248556 -1.23687 4.49829 4.99227 1.7768 0. -1
 -15 1 1 2 0 0 -0.0248556 1.23687 -4.34663 4.85606 1.7768 0. 1
</event>
<event>
 4 80 1 -1 -1 -1
 11 -1 0 0 0 0 0 0 5 5 0 0. 9.
 -11 -1 0 0 0 0 0 0 -4.99999 4.99999 0 0. 9.
 15 1 1 2 0 0 -1.80884 -2.63889 3.40685 5 1.7768 0. -1
 -15 1 1 2 0 0 1.80884 2.63889 -3.40684 4.99999 1.7768 0. 1
</event>
<event>
 4 80 1 -1 -1 -1
 11 -1 0 0 0 0 0 0 5 5 0 0. 9.
 -11 -1 0 0 0 0 0 0 -4.66675 4.66675 0 0. 9.
 15 1 1 2 0 0 3.47733 -0.412639 2.98147 4.93041 1.7768 0. 1
 -15 1 1 2 0 0 -3.47733 0.412639 -2.64822 4.73633 1.7768 0. -1
</event>
<event>
 4 80 1 -1 -1 -1
 11 -1 0 0 0 0 0 0 0.840303 0.840303 0 0. 9.
 -11 -1 0 0 0 0 0 0 -5 5 0 0. 9.
 15 1 1 2 0 0 0.58124 -0.206023 -0.919408 2.09364 1.7768 0. -1
 -15 1 1 2 0 0 -0.58124 0.206023 -3.24029 3.74666 1.7768 0. 1
</event>
<event>
 4 80 1 -1 -1 -1
 11 -1 0 0 0 0 0 0 4.99918 4.99918 0 0. 9.
 -11 -1 0 0 0 0 0 0 -5 5 0 0. 9.
 15 1 1 2 0 0 -3.39412 -0.573502 -3.16099 4.99985 1.7768 0. -1
 -15 1 1 2 0 0 3.39412 0.573502 3.16017 4.99933 1.7768 0. 1
</event>
<event>
 4 80 1 -1 -1 -1
 11 -1 0 0 0 0 0 0 4.53854 4.53854 0 0. 9.
 -11 -1 0 0 0 0 0 0 -4.9973 4.9973 0 0. 9.
 15 1 1 2 0 0 0.228447 2.41556 -3.9263 4.94577 1.7768 0. -1
 -15 1 1 2 0 0 -0.228447 -2.41556 3.46754 4.59006 1.7768 0. 1
</event>
<event>
 4 80 1 -1 -1 -1
 11 -1 0 0 0 0 0 0 5 5 0 0. 9.
 -11 -1 0 0 0 0 0 0 -3.54293 3.54293 0 0. 9.
 15 1 1 2 0 0 -1.51506 2.21063 -2.02747 3.8014 1.7768 0. -1
 -15 1 1 2 0 0 1.51506 -2.21063 3.48454 4.74152 1.7768 0. 1
</event>
<event>
 4 80 1 -1 -1 -1
 11 -1 0 0 0 0 0 0 4.98154 4.98154 0 0. 9.
 -11 -1 0 0 0 0 0 0 -4.99977 4.99977 0 0. 9.
 15 1 1 2 0 0 3.26233 -2.27395 -2.44533 4.9951 1.7768 0. -1
 -15 1 1 2 0 0 -3.26233 2.27395 2.42711 4.9862 1.7768 0. 1
</event>
<event>
 4 80 1 -1 -1 -1
 11 -1 0 0 0 0 0 0 4.99821 4.99821 0 0. 9.
 -11 -1 0 0 0 0 0 0 -5 5 0 0. 9.
 15 1 1 2 0 0 -2.76861 3.11138 -2.11925 4.99948 1.7768 0. -1
 -15 1 1 2 0 0 2.76861 -3.11138 2.11746 4.99872 1.7768 0. 1
</event>
<event>
 4 80 1 -1 -1 -1
 11 -1 0 0 0 0 0 0 3.49408 3.49408 0 0. 9.
 -11 -1 0 0 0 0 0 0 -4.99995 4.99995 0 0. 9.
 15 1 1 2 0 0 -2.04101 0.318461 -3.97339 4.81796 1.7768 0. 1
 -15 1 1 2 0 0 2.04101 -0.318461 2.46752 3.67608 1.7768 0. -1
</event>
<event>
 4 80 1 -1 -1 -1
 11 -1 0 0 0 0 0 0 5 5 0 0. 9.
 -11 -1 0 0 0 0 0 0 -4.99632 4.99632 0 0. 9.
 15 1 1 2 0 0 0.506309 1.60277 -4.35691 4.99656 1.7768 0. -1
 -15 1 1 2 0 0 -0.506309 -1.60277 4.36058 4.99976 1.7768 0. 1
</event>
<event>
 4 80 1 -1 -1 -1
 11 -1 0 0 0 0 0 0 4.87452 4.87452 0 0. 9.
 -11 -1 0 0 0 0 0 0 -5 5 0 0. 9.
 15 1 1 2 0 0 3.63278 -0.742411 -2.79547 4.97199 1.7768 0. 1
 -15 1 1 2 0 0 -3.63278 0.742411 2.66999 4.90253 1.7768 0. -1
</event>
<event>
 4 80 1 -1 -1 -1
 11 -1 0 0 0 0 0 0 5 5 0 0. 9.
 -11 -1 0 0 0 0 0 0 -5 5 0 0. 9.
 15 1 1 2 0 0 0.0720219 1.49556 4.42723 5 1.7768 0. 1
 -15 1 1 2 0 0 -0.0720219 -1.49556 -4.42723 5 1.7768 0. -1
</event>
<event>
 4 80 1 -1 -1 -1
 11 -1 0 0 0 0 0 0 4.98126 4.98126 0 0. 9.
 -11 -1 0 0 0 0 0 0 -4.95894 4.95894 0 0. 9.
 15 1 1 2 0 0 2.39616 -2.82529 2.80763 4.97638 1.7768 0. -1
 -15 1 1 2 0 0 -2.39616 2.82529 -2.78532 4.96382 1.7768 0. 1
</event>
<event>
 4 80 1 -1 -1 -1
 11 -1 0 0 0 0 0 0 5 5 0 0. 9.
 -11 -1 0 0 0 0 0 0 -3.43095 3.43095 0 0. 9.
 15 1 1 2 0 0 2.95148 0.29807 -1.53569 3.78367 1.7768 0. -1
 -15 1 1 2 0 0 -2.95148 -0.29807 3.10474 4.64728 1.7768 0. 1
</event>
<event>
 4 80 1 -1 -1 -1
 11 -1 0 0 0 0 0 0 5 5 0 0. 9.
 -11 -1 0 0 0 0 0 0 -5 5 0 0. 9.
 15 1 1 2 0 0 -2.613 -0.927927 3.7621 5 1.7768 0. -1
 -15 1 1 2 0 0 2.613 0.927927 -3.7621 5 1.7768 0. 1
</event>
<event>
 4 80 1 -1 -1 -1
 11 -1 0 0 0 0 0 0 4.99939 4.99939 0 0. 9.
 -11 -1 0 0 0 0 0 0 -5 5 0 0. 9.
 15 1 1 2 0 0 0.436117 -1.61482 -4.36395 4.99996 1.7768 0. 1
 -15 1 1 2 0 0 -0.436117 1.61482 4.36334 4.99943 1.7768 0. -1
</event>
<event>
 4 80 1 -1 -1 -1
 11 -1 0 0 0 0 0 0 1.00996 1.00996 0 0. 9.
 -11 -1 0 0 0 0 0 0 -5 5 0 0. 9.
 15 1 1 2 0 0 0.680113 1.03158 -2.8033 3.5416 1.7768 0. -1
 -15 1 1 2 0 0 -0.680113 -1.03158 -1.18674 2.46836 1.7768 0. 1
</event>
<event>
 4 80 1 -1 -1 -1
 11 -1 0 0 0 0 0 0 5 5 0 0. 9.
 -11 -1 0 0 0 0 0 0 -4.99999 4.99999 0 0. 9.
 15 1 1 2 0 0 -4.25914 -0.331182 -1.89533 4.99999 1.7768 0. 1
 -15 1 1 2 0 0 4.25914 0.331182 1.89534 5 1.7768 0. -1
</event>
<event>
 4 80 1 -1 -1 -1
 11 -1 0 0 0 0 0 0 5 5 0 0. 9.
 -11 -1 0 0 0 0 0 0 -4.99993 4.99993 0 0. 9.
 15 1 1 2 0 0 1.30274 -4.20902 -1.55848 4.99995 1.7768 0. 1
 -15 1 1 2 0 0 -1.30274 4.20902 1.55855 4.99998 1.7768 0. -1
</event>
<event>
 4 80 1 -1 -1 -1
 11 -1 0 0 0 0 0 0 5 5 0 0. 9.
 -11 -1 0 0 0 0 0 0 -5 5 0 0. 9.
 15 1 1 2 0 0 -2.44739 1.74631 3.57812 5 1.7768 0. -1
 -15 1 1 2 0 0 2.44739 -1.74631 -3.57812 5 1.7768 0. 1
</event>
<event>
 4 80 1 -1 -1 -1
 11 -1 0 0 0 0 0 0 5 5 0 0. 9.
 -11 -1 0 0 0 0 0 0 -5 5 0 0. 9.
 15 1 1 2 0 0 -4.54607 0.891243 -0.617395 5 1.7768 0. 1
 -15 1 1 2 0 0 4.54607 -0.891243 0.617395 5 1.7768 0. -1
</event>
<event>
 4 80 1 -1 -1 -1
 11 -1 0 0 0 0 0 0 5 5 0 0. 9.
 -11 -1 0 0 0 0 0 0 -5 5 0 0. 9.
 15 1 1 2 0 0 -3.33025 2.7041 -1.8546 5 1.7768 0. -1
 -15 1 1 2 0 0 3.33025 -2.7041 1.8546 5 1.7768 0. 1
</event>
<event>
 4 80 1 -1 -1 -1
 11 -1 0 0 0 0 0 0 4.98875 4.98875 0 0. 9.
 -11 -1 0 0 0 0 0 0 -5 5 0 0. 9.
 15 1 1 2 0 0 3.14869 1.74226 2.96697 4.99103 1.7768 0. 1
 -15 1 1 2 0 0 -3.14869 -1.74226 -2.97822 4.99772 1.7768 0. -1
</event>
<event>
 4 80 1 -1 -1 -1
 11 -1 0 0 0 0 0 0 5 5 0 0. 9.
 -11 -1 0 0 0 0 0 0 -5 5 0 0. 9.
 15 1 1 2 0 0 -0.639567 0.726685 -4.57222 5 1.7768 0. 1
 -15 1 1 2 0 0 0.639567 -0.726685 4.57222 5 1.7768 0. -1
</event>
<event>
 4 80 1 -1 -1 -1
 11 -1 0 0 0 0 0 0 4.99999 4.99999 0 0. 9.
 -11 -1 0 0 0 0 0 0 -5 5 0 0. 9.
 15 1 1 2 0 0 0.739954 0.220936 4.60932 4.99999 1.7768 0. -1
 -15 1 1 2 0 0 -0.739954 -0.220936 -4.60933 5 1.7768 0. 1
</event>
<event>
 4 80 1 -1 -1 -1
 11 -1 0 0 0 0 0 0 5 5 0 0. 9.
 -11 -1 0 0 0 0 0 0 -5 5 0 0. 9.
 15 1 1 2 0 0 0.770253 0.773326 4.54433 5 1.7768 0. -1
 -15 1 1 2 0 0 -0.770253 -0.773326 -4.54433 5 1.7768 0. 1
</event>
<event>
 4 80 1 -1 -1 -1
 11 -1 0 0 0 0 0 0 5 5 0 0. 9.
 -11 -1 0 0 0 0 0 0 -5 5 0 0. 9.
 15 1 1 2 0 0 2.17529 0.991732 -4.01582 5 1.7768 0. 1
 -15 1 1 2 0 0 -2.17529 -0.991732 4.01582 5 1.7768 0. -1
</event>
<event>
 4 80 1 -1 -1 -1
 11 -1 0 0 0 0 0 0 4.89438 4.89438 0 0. 9.
 -11 -1 0 0 0 0 0 0 -5 5 0 0. 9.
 15 1 1 2 0 0 2.16035 1.11898 -3.97667 4.98908 1.7768 0. -1
 -15 1 1 2 0 0 -2.16035 -1.11898 3.87105 4.9053 1.7768 0. 1
</event>
<event>
 4 80 1 -1 -1 -1
 11 -1 0 0 0 0 0 0 5 5 0 0. 9.
 -11 -1 0 0 0 0 0 0 -4.99868 4.99868 0 0. 9.
 15 1 1 2 0 0 -4.16797 -0.384713 -2.07676 4.99906 1.7768 0. 1
 -15 1 1 2 0 0 4.16797 0.384713 2.07809 4.99961 1.7768 0. -1
</event>
<event>
 4 80 1 -1 -1 -1
 11 -1 0 0 0 0 0 0 5 5 0 0. 9.
 -11 -1 0 0 0 0 0 0 -5 5 0 0. 9.
 15 1 1 2 0 0 4.35903 1.42659 0.897744 5 1.7768 0. 1
 -15 1 1 2 0 0 -4.35903 -1.42659 -0.897744 5 1.7768 0. -1
</event>
<event>
 4 80 1 -1 -1 -1
 11 -1 0 0 0 0 0 0 5 5 0 0. 9.
 -11 -1 0 0 0 0 0 0 -4.99986 4.99986 0 0. 9.
 15 1 1 2 0 0 0.0622269 2.07018 4.18959 4.99999 1.7768 0. -1
 -15 1 1 2 0 0 -0.0622269 -2.07018 -4.18945 4.99988 1.7768 0. 1
</event>
<event>
 4 80 1 -1 -1 -1
 11 -1 0 0 0 0 0 0 5 5 0 0. 9.
 -11 -1 0 0 0 0 0 0 -5 5 0 0. 9.
 15 1 1 2 0 0 2.11324 0.706579 -4.10819 5 1.7768 0. 1
 -15 1 1 2 0 0 -2.11324 -0.706579 4.10819 5 1.7768 0. -1
</event>
<event>
 4 80 1 -1 -1 -1
 11 -1 0 0 0 0 0 0 5 5 0 0. 9.
 -11 -1 0 0 0 0 0 0 -5 5 0 0. 9.
 15 1 1 2 0 0 -3.47171 -0.534288 3.08286 5 1.7768 0. -1
 -15 1 1 2 0 0 3.47171 0.534288 -3.08287 5 1.7768 0. 1
</event>
<event>
 4 80 1 -1 -1 -1
 11 -1 0 0 0 0 0 0 4.99952 4.99952 0 0. 9.
 -11 -1 0 0 0 0 0 0 -5 5 0 0. 9.
 15 1 1 2 0 0 -3.0572 -3.52766 0.221277 4.99975 1.7768 0. 1
 -15 1 1 2 0 0 3.0572 3.52766 -0.221757 4.99977 1.7768 0. -1
</event>
<event>
 4 80 1 -1 -1 -1
 11 -1 0 0 0 0 0 0 5 5 0 0. 9.
 -11 -1 0 0 0 0 0 0 -5 5 0 0. 9.
 15 1 1 2 0 0 -4.30177 1.81666 0.191786 5 1.7768 0. -1
 -15 1 1 2 0 0 4.30177 -1.81666 -0.191786 5 1.7768 0. 1
</event>
<event>
 4 80 1 -1 -1 -1
 11 -1 0 0 0 0 0 0 4.84795 4.84795 0 0. 9.
 -11 -1 0 0 0 0 0 0 -5 5 0 0. 9.
 15 1 1 2 0 0 3.29302 2.11087 2.32889 4.88684 1.7768 0. -1
 -15 1 1 2 0 0 -3.29302 -2.11087 -2.48094 4.96111 1.7768 0. 1
</event>
<event>
 4 80 1 -1 -1 -1
 11 -1 0 0 0 0 0 0 5 5 0 0. 9.
 -11 -1 0 0 0 0 0 0 -4.98932 4.98932 0 0. 9.
 15 1 1 2 0 0 -0.452415 -1.37155 -4.43347 4.98991 1.7768 0. 1
 -15 1 1 2 0 0 0.452415 1.37155 4.44415 4.99941 1.7768 0. -1
</event>
<event>
 4 80 1 -1 -1 -1
 11 -1 0 0 0 0 0 0 3.43949 3.43949 0 0. 9.
 -11 -1 0 0 0 0 0 0 -4.9998 4.9998 0 0. 9.
 15 1 1 2 0 0 -0.981462 0.144896 2.89636 3.5399 1.7768 0. 1
 -15 1 1 2 0 0 0.981462 -0.144896 -4.45668 4.89939 1.7768 0. -1
</event>
<event>
 4 80 1 -1 -1 -1
 11 -1 0 0 0 0 0 0 5 5 0 0. 9.
 -11 -1 0 0 0 0 0 0 -4.62426 4.62426 0 0. 9.
 15 1 1 2 0 0 -3.29352 3.00599 0.471468 4.8232 1.7768 0. 1
 -15 1 1 2 0 0 3.29352 -3.00599 -0.0957299 4.80106 1.7768 0. -1
</event>
<event>
 4 80 1 -1 -1 -1
 11 -1 0 0 0 0 0 0 5 5 0 0. 9.
 -11 -1 0 0 0 0 0 0 -5 5 0 0. 9.
 15 1 1 2 0 0 1.13509 -0.576929 4.49678 5 1.7768 0. 1
 -15 1 1 2 0 0 -1.13509 0.576929 -4.49678 5 1.7768 0. -1
</event>
<event>
 4 80 1 -1 -1 -1
 11 -1 0 0 0 0 0 0 4.99707 4.99707 0 0. 9.
 -11 -1 0 0 0 0 0 0 -5 5 0 0. 9.
 15 1 1 2 0 0 -0.174365 2.48655 -3.95296 4.99969 1.7768 0. -1
 -15 1 1 2 0 0 0.174365 -2.48655 3.95003 4.99738 1.7768 0. 1
</event>
<event>
 4 80 1 -1 -1 -1
 11 -1 0 0 0 0 0 0 5 5 0 0. 9.
 -11 -1 0 0 0 0 0 0 -4.95927 4.95927 0 0. 9.
 15 1 1 2 0 0 4.10196 1.3112 1.77915 4.98683 1.7768 0. -1
 -15 1 1 2 0 0 -4.10196 -1.3112 -1.73842 4.97244 1.7768 0. 1
</event>
<event>
 4 80 1 -1 -1 -1
 11 -1 0 0 0 0 0 0 5 5 0 0. 9.
 -11 -1 0 0 0 0 0 0 -5 5 0 0. 9.
 15 1 1 2 0 0 4.21267 1.96708 -0.475713 5 1.7768 0. -1
 -15 1 1 2 0 0 -4.21267 -1.96708 0.475714 5 1.7768 0. 1
</event>
<event>
 4 80 1 -1 -1 -1
 11 -1 0 0 0 0 0 0 5 5 0 0. 9.
 -11 -1 0 0 0 0 0 0 -5 5 0 0. 9.
 15 1 1 2 0 0 3.91192 -0.532711 -2.50108 5 1.7768 0. 1
 -15 1 1 2 0 0 -3.91192 0.532711 2.50108 5 1.7768 0. -1
</event>
<event>
 4 80 1 -1 -1 -1
 11 -1 0 0 0 0 0 0 5 5 0 0. 9.
 -11 -1 0 0 0 0 0 0 -5 5 0 0. 9.
 15 1 1 2 0 0 4.47038 0.565135 1.24039 5 1.7768 0. -1
 -15 1 1 2 0 0 -4.47038 -0.565135 -1.24039 5 1.7768 0. 1
</event>
<event>
 4 80 1 -1 -1 -1
 11 -1 0 0 0 0 0 0 5 5 0 0. 9.
 -11 -1 0 0 0 0 0 0 -5 5 0 0. 9.
 15 1 1 2 0 0 1.38817 4.28161 -1.25821 5 1.7768 0. 1
 -15 1 1 2 0 0 -1.38817 -4.28161 1.25821 5 1.7768 0. -1
</event>
<event>
 4 80 1 -1 -1 -1
 11 -1 0 0 0 0 0 0 5 5 0 0. 9.
 -11 -1 0 0 0 0 0 0 -5 5 0 0. 9.
 15 1 1 2 0 0 -1.48441 -4.42111 0.304334 5 1.7768 0. 1
 -15 1 1 2 0 0 1.48441 4.42111 -0.304334 5 1.7768 0. -1
</event>
<event>
 4 80 1 -1 -1 -1
 11 -1 0 0 0 0 0 0 4.97787 4.97787 0 0. 9.
 -11 -1 0 0 0 0 0 0 -5 5 0 0. 9.
 15 1 1 2 0 0 -1.1166 0.348953 -4.52362 4.99894 1.7768 0. -1
 -15 1 1 2 0 0 1.1166 -0.348953 4.50149 4.97893 1.7768 0. 1
</event>
<event>
 4 80 1 -1 -1 -1
 11 -1 0 0 0 0 0 0 5 5 0 0. 9.
 -11 -1 0 0 0 0 0 0 -5 5 0 0. 9.
 15 1 1 2 0 0 2.73971 -3.58156 1.2283 5 1.7768 0. -1
 -15 1 1 2 0 0 -2.73971 3.58156 -1.2283 5 1.7768 0. 1
</event>
<event>
 4 80 1 -1 -1 -1
 11 -1 0 0 0 0 0 0 4.03959 4.03959 0 0. 9.
 -11 -1 0 0 0 0 0 0 -5 5 0 0. 9.
 15 1 1 2 0 0 0.245292 3.13161 -3.17371 4.80597 1.7768 0. -1
 -15 1 1 2 0 0 -0.245292 -3.13161 2.2133 4.23363 1.7768 0. 1
</event>
<event>
 4 80 1 -1 -1 -1
 11 -1 0 0 0 0 0 0 1.13076 1.13076 0 0. 9.
 -11 -1 0 0 0 0 0 0 -4.9997 4.9997 0 0. 9.
 15 1 1 2 0 0 0.865991 -1.11976 -1.03026 2.49459 1.7768 0. -1
 -15 1 1 2 0 0 -0.865991 1.11976 -2.83868 3.63588 1.7768 0. 1
</event>
<event>
 4 80 1 -1 -1 -1
 11 -1 0 0 0 0 0 0 5 5 0 0. 9.
 -11 -1 0 0 0 0 0 0 -5 5 0 0. 9.
 15 1 1 2 0 0 3.06219 0.476597 -3.4983 5 1.7768 0. -1
 -15 1 1 2 0 0 -3.06219 -0.476597 3.4983 5 1.7768 0. 1
</event>
<event>
 4 80 1 -1 -1 -1
 11 -1 0 0 0 0 0 0 4.57505 4.57505 0 0. 9.
 -11 -1 0 0 0 0 0 0 -5 5 0 0. 9.
 15 1 1 2 0 0 -3.39914 2.31913 -1.88296 4.86166 1.7768 0. 1
 -15 1 1 2 0 0 3.39914 -2.31913 1.458 4.71339 1.7768 0. -1
</event>
<event>
 4 80 1 -1 -1 -1
 11 -1 0 0 0 0 0 0 5 5 0 0. 9.
 -11 -1 0 0 0 0 0 0 -5 5 0 0. 9.
 15 1 1 2 0 0 -0.0309422 1.29214 -4.49129 5 1.7768 0. -1
 -15 1 1 2 0 0 0.0309422 -1.29214 4.49129 5 1.7768 0. 1
</event>
<event>
 4 80 1 -1 -1 -1
 11 -1 0 0 0 0 0 0 5 5 0 0. 9.
 -11 -1 0 0 0 0 0 0 -4.38736 4.38736 0 0. 9.
 15 1 1 2 0 0 1.58707 3.96379 1.04858 4.74212 1.7768 0. -1
 -15 1 1 2 0 0 -1.58707 -3.96379 -0.435938 4.64524 1.7768 0. 1
</event>
<event>
 4 80 1 -1 -1 -1
 11 -1 0 0 0 0 0 0 5 5 0 0. 9.
 -11 -1 0 0 0 0 0 0 -4.99999 4.99999 0 0. 9.
 15 1 1 2 0 0 -2.16567 -2.82476 -3.02865 4.99999 1.7768 0. 1
 -15 1 1 2 0 0 2.16567 2.82476 3.02867 5 1.7768 0. -1
</event>
<event>
 4 80 1 -1 -1 -1
 11 -1 0 0 0 0 0 0 5 5 0 0. 9.
 -11 -1 0 0 0 0 0 0 -5 5 0 0. 9.
 15 1 1 2 0 0 3.50386 0.490375 3.05365 5 1.7768 0. 1
 -15 1 1 2 0 0 -3.50386 -0.490375 -3.05365 5 1.7768 0. -1
</event>
<event>
 4 80 1 -1 -1 -1
 11 -1 0 0 0 0 0 0 4.99999 4.99999 0 0. 9.
 -11 -1 0 0 0 0 0 0 -4.99066 4.99066 0 0. 9.
 15 1 1 2 0 0 -1.55096 2.01343 -3.91147 4.99167 1.7768 0. 1
 -15 1 1 2 0 0 1.55096 -2.01343 3.9208 4.99898 1.7768 0. -1
</event>
<event>
 4 80 1 -1 -1 -1
 11 -1 0 0 0 0 0 0 5 5 0 0. 9.
 -11 -1 0 0 0 0 0 0 -5 5 0 0. 9.
 15 1 1 2 0 0 0.198261 -3.32899 -3.27426 5 1.7768 0. 1
 -15 1 1 2 0 0 -0.198261 3.32899 3.27426 5 1.7768 0. -1
</event>
<event>
 4 80 1 -1 -1 -1
 11 -1 0 0 0 0 0 0 5 5 0 0. 9.
 -11 -1 0 0 0 0 0 0 -5 5 0 0. 9.
 15 1 1 2 0 0 -0.861351 3.02813 3.45409 5 1.7768 0. -1
 -15 1 1 2 0 0 0.861351 -3.02813 -3.45409 5 1.7768 0. 1
</event>
<event>
 4 80 1 -1 -1 -1
 11 -1 0 0 0 0 0 0 5 5 0 0. 9.
 -11 -1 0 0 0 0 0 0 -4.99576 4.99576 0 0. 9.
 15 1 1 2 0 0 -2.21993 -1.16021 -3.94084 4.99621 1.7768 0. -1
 -15 1 1 2 0 0 2.21993 1.16021 3.94508 4.99955 1.7768 0. 1
</event>
<event>
 4 80 1 -1 -1 -1
 11 -1 0 0 0 0 0 0 1.92795 1.92795 0 0. 9.
 -11 -1 0 0 0 0 0 0 -4.63132 4.63132 0 0. 9.
 15 1 1 2 0 0 -0.680231 1.0265 -3.61562 4.2127 1.7768 0. -1
 -15 1 1 2 0 0 0.680231 -1.0265 0.912251 2.34656 1.7768 0. 1
</event>
<event>
 4 80 1 -1 -1 -1
 11 -1 0 0 0 0 0 0 4.71172 4.71172 0 0. 9.
 -11 -1 0 0 0 0 0 0 -5 5 0 0. 9.
 15 1 1 2 0 0 4.39718 -0.260148 -1.14356 4.88552 1.7768 0. -1
 -15 1 1 2 0 0 -4.39718 0.260148 0.855282 4.82619 1.7768 0. 1
</event>
<event>
 4 80 1 -1 -1 -1
 11 -1 0 0 0 0 0 0 4.95339 4.95339 0 0. 9.
 -11 -1 0 0 0 0 0 0 -5 5 0 0. 9.
 15 1 1 2 0 0 -3.34778 1.28238 -2.98258 4.99055 1.7768 0. 1
 -15 1 1 2 0 0 3.34778 -1.28238 2.93597 4.96284 1.7768 0. -1
</event>
<event>
 4 80 1 -1 -1 -1
 11 -1 0 0 0 0 0 0 5 5 0 0. 9.
 -11 -1 0 0 0 0 0 0 -5 5 0 0. 9.
 15 1 1 2 0 0 -0.0545559 -0.167439 -4.67025 5 1.7768 0. 1
 -15 1 1 2 0 0 0.0545559 0.167439 4.67025 5 1.7768 0. -1
</event>
<event>
 4 80 1 -1 -1 -1
 11 -1 0 0 0 0 0 0 5 5 0 0. 9.
 -11 -1 0 0 0 0 0 0 -5 5 0 0. 9.
 15 1 1 2 0 0 -3.44961 0.923797 -3.01481 5 1.7768 0. -1
 -15 1 1 2 0 0 3.44961 -0.923797 3.01481 5 1.7768 0. 1
</event>
<event>
 4 80 1 -1 -1 -1
 11 -1 0 0 0 0 0 0 4.99893 4.99893 0 0. 9.
 -11 -1 0 0 0 0 0 0 -5 5 0 0. 9.
 15 1 1 2 0 0 -0.966257 -0.917917 -4.47945 4.99994 1.7768 0. 1
 -15 1 1 2 0 0 0.966257 0.917917 4.47838 4.99898 1.7768 0. -1
</event>
<event>
 4 80 1 -1 -1 -1
 11 -1 0 0 0 0 0 0 4.76616 4.76616 0 0. 9.
 -11 -1 0 0 0 0 0 0 -5 5 0 0. 9.
 15 1 1 2 0 0 0.558314 2.25068 -4.02903 4.97675 1.7768 0. 1
 -15 1 1 2 0 0 -0.558314 -2.25068 3.79519 4.78941 1.7768 0. -1
</event>
<event>
 4 80 1 -1 -1 -1
 11 -1 0 0 0 0 0 0 5 5 0 0. 9.
 -11 -1 0 0 0 0 0 0 -5 5 0 0. 9.
 15 1 1 2 0 0 3.40585 1.38649 2.88446 5 1.7768 0. -1
 -15 1 1 2 0 0 -3.40585 -1.38649 -2.88446 5 1.7768 0. 1
</event>
<event>
 4 80 1 -1 -1 -1
 11 -1 0 0 0 0 0 0 5 5 0 0. 9.
 -11 -1 0 0 0 0 0 0 -5 5 0 0. 9.
 15 1 1 2 0 0 -3.88902 -2.47059 -0.783531 5 1.7768 0. -1
 -15 1 1 2 0 0 3.88902 2.47059 0.783531 5 1.7768 0. 1
</event>
<event>
 4 80 1 -1 -1 -1
 11 -1 0 0 0 0 0 0 4.99997 4.99997 0 0. 9.
 -11 -1 0 0 0 0 0 0 -4.98805 4.98805 0 0. 9.
 15 1 1 2 0 0 -1.92376 0.632734 4.21085 4.99902 1.7768 0. 1
 -15 1 1 2 0 0 1.92376 -0.632734 -4.19894 4.98899 1.7768 0. -1
</event>
<event>
 4 80 1 -1 -1 -1
 11 -1 0 0 0 0 0 0 5 5 0 0. 9.
 -11 -1 0 0 0 0 0 0 -4.01422 4.01422 0 0. 9.
 15 1 1 2 0 0 2.58176 -2.16328 -1.88103 4.2475 1.7768 0. -1
 -15 1 1 2 0 0 -2.58176 2.16328 2.86681 4.76672 1.7768 0. 1
</event>
<event>
 4 80 1 -1 -1 -1
 11 -1 0 0 0 0 0 0 4.99943 4.99943 0 0. 9.
 -11 -1 0 0 0 0 0 0 -4.99804 4.99804 0 0. 9.
 15 1 1 2 0 0 1.06324 -3.93343 2.28702 4.99905 1.7768 0. -1
 -15 1 1 2 0 0 -1.06324 3.93343 -2.28563 4.99842 1.7768 0. 1
</event>
<event>
 4 80 1 -1 -1 -1
 11 -1 0 0 0 0 0 0 5 5 0 0. 9.
 -11 -1 0 0 0 0 0 0 -4.61183 4.61183 0 0. 9.
 15 1 1 2 0 0 2.32172 -1.85999 3.52117 4.94028 1.7768 0. -1
 -15 1 1 2 0 0 -2.32172 1.85999 -3.13301 4.67155 1.7768 0. 1
</event>
<event>
 4 80 1 -1 -1 -1
 11 -1 0 0 0 0 0 0 5 5 0 0. 9.
 -11 -1 0 0 0 0 0 0 -3.81126 3.81126 0 0. 9.
 15 1 1 2 0 0 -1.34649 -2.99788 2.87313 4.71306 1.7768 0. -1
 -15 1 1 2 0 0 1.34649 2.99788 -1.68439 4.0982 1.7768 0. 1
</event>
<event>
 4 80 1 -1 -1 -1
 11 -1 0 0 0 0 0 0 4.5434 4.5434 0 0. 9.
 -11 -1 0 0 0 0 0 0 -4.99975 4.99975 0 0. 9.
 15 1 1 2 0 0 -2.12286 -0.0696947 3.65528 4.58587 1.7768 0. 1
 -15 1 1 2 0 0 2.12286 0.0696947 -4.11163 4.95728 1.7768 0. -1
</event>
<event>
 4 80 1 -1 -1 -1
 11 -1 0 0 0 0 0 0 3.2052 3.2052 0 0. 9.
 -11 -1 0 0 0 0 0 0 -5 5 0 0. 9.
 15 1 1 2 0 0 2.39227 2.33846 0.429689 3.81231 1.7768 0. -1
 -15 1 1 2 0 0 -2.39227 -2.33846 -2.22449 4.39289 1.7768 0. 1
</event>
<event>
 4 80 1 -1 -1 -1
 11 -1 0 0 0 0 0 0 5 5 0 0. 9.
 -11 -1 0 0 0 0 0 0 -4.99999 4.99999 0 0. 9.
 15 1 1 2 0 0 -0.67043 -0.2714 4.61726 5 1.7768 0. -1
 -15 1 1 2 0 0 0.67043 0.2714 -4.61726 4.99999 1.7768 0. 1
</event>
<event>
 4 80 1 -1 -1 -1
 11 -1 0 0 0 0 0 0 3.26734 3.26734 0 0. 9.
 -11 -1 0 0 0 0 0 0 -5 5 0 0. 9.
 15 1 1 2 0 0 -0.233631 -3.04898 -2.86732 4.55304 1.7768 0. 1
 -15 1 1 2 0 0 0.233631 3.04898 1.13466 3.71431 1.7768 0. -1
</event>
<event>
 4 80 1 -1 -1 -1
 11 -1 0 0 0 0 0 0 5 5 0 0. 9.
 -11 -1 0 0 0 0 0 0 -5 5 0 0. 9.
 15 1 1 2 0 0 -4.32311 -0.298187 -1.75045 5 1.7768 0. -1
 -15 1 1 2 0 0 4.32311 0.298187 1.75045 5 1.7768 0. 1
</event>
<event>
 4 80 1 -1 -1 -1
 11 -1 0 0 0 0 0 0 4.97798 4.97798 0 0. 9.
 -11 -1 0 0 0 0 0 0 -5 5 0 0. 9.
 15 1 1 2 0 0 -0.687132 -1.4664 -4.38248 4.99864 1.7768 0. -1
 -15 1 1 2 0 0 0.687132 1.4664 4.36046 4.97934 1.7768 0. 1
</event>
<event>
 4 80 1 -1 -1 -1
 11 -1 0 0 0 0 0 0 4.94007 4.94007 0 0. 9.
 -11 -1 0 0 0 0 0 0 -4.99838 4.99838 0 0. 9.
 15 1 1 2 0 0 -1.30973 -2.97515 -3.34096 4.98865 1.7768 0. 1
 -15 1 1 2 0 0 1.30973 2.97515 3.28266 4.9498 1.7768 0. -1
</event>
<event>
 4 80 1 -1 -1 -1
 11 -1 0 0 0 0 0 0 5 5 0 0. 9.
 -11 -1 0 0 0 0 0 0 -5 5 0 0. 9.
 15 1 1 2 0 0 -0.168624 -2.85412 -3.697 5 1.7768 0. 1
 -15 1 1 2 0 0 0.168624 2.85412 3.697 5 1.7768 0. -1
</event>
<event>
 4 80 1 -1 -1 -1
 11 -1 0 0 0 0 0 0 5 5 0 0. 9.
 -11 -1 0 0 0 0 0 0 -4.96221 4.96221 0 0. 9.
 15 1 1 2 0 0 3.02383 -0.873923 -3.40837 4.9681 1.7768 0. 1
 -15 1 1 2 0 0 -3.02383 0.873923 3.44617 4.99411 1.7768 0. -1
</event>
<event>
 4 80 1 -1 -1 -1
 11 -1 0 0 0 0 0 0 5 5 0 0. 9.
 -11 -1 0 0 0 0 0 0 -5 5 0 0. 9.
 15 1 1 2 0 0 -2.61652 3.49408 -1.66956 5 1.7768 0. 1
 -15 1 1 2 0 0 2.61652 -3.49408 1.66956 5 1.7768 0. -1
</event>
<event>
 4 80 1 -1 -1 -1
 11 -1 0 0 0 0 0 0 0.78459 0.78459 0 0. 9.
 -11 -1 0 0 0 0 0 0 -5 5 0 0. 9.
 15 1 1 2 0 0 0.368664 0.326187 -3.16367 3.66181 1.7768 0. 1
 -15 1 1 2 0 0 -0.368664 -0.326187 -1.05174 2.12278 1.7768 0. -1
</event>
<event>
 4 80 1 -1 -1 -1
 11 -1 0 0 0 0 0 0 3.7904 3.7904 0 0. 9.
 -11 -1 0 0 0 0 0 0 -5 5 0 0. 9.
 15 1 1 2 0 0 -3.44599 -1.2662 -2.14132 4.60663 1.7768 0. 1
 -15 1 1 2 0 0 3.44599 1.2662 0.931721 4.18377 1.7768 0. -1
</event>
<event>
 4 80 1 -1 -1 -1
 11 -1 0 0 0 0 0 0 5 5 0 0. 9.
 -11 -1 0 0 0 0 0 0 -4.99872 4.99872 0 0. 9.
 15 1 1 2 0 0 -1.12929 -1.90209 -4.1155 4.99883 1.7768 0. 1
 -15 1 1 2 0 0 1.12929 1.90209 4.11678 4.99989 1.7768 0. -1
</event>
<event>
 4 80 1 -1 -1 -1
 11 -1 0 0 0 0 0 0 5 5 0 0. 9.
 -11 -1 0 0 0 0 0 0 -4.99963 4.99963 0 0. 9.
 15 1 1 2 0 0 -1.29715 -4.18998 -1.61287 4.99976 1.7768 0. 1
 -15 1 1 2 0 0 1.29715 4.18998 1.61324 4.99988 1.7768 0. -1
</event>
<event>
 4 80 1 -1 -1 -1
 11 -1 0 0 0 0 0 0 5 5 0 0. 9.
 -11 -1 0 0 0 0 0 0 -5 5 0 0. 9.
 15 1 1 2 0 0 2.0852 0.102139 -4.18136 5 1.7768 0. 1
 -15 1 1 2 0 0 -2.0852 -0.102139 4.18136 5 1.7768 0. -1
</event>
<event>
 4 80 1 -1 -1 -1
 11 -1 0 0 0 0 0 0 5 5 0 0. 9.
 -11 -1 0 0 0 0 0 0 -4.99991 4.99991 0 0. 9.
 15 1 1 2 0 0 -1.27272 -3.79026 2.41995 4.99998 1.7768 0. 1
 -15 1 1 2 0 0 1.27272 3.79026 -2.41986 4.99993 1.7768 0. -1
</event>
<event>
 4 80 1 -1 -1 -1
 11 -1 0 0 0 0 0 0 4.98932 4.98932 0 0. 9.
 -11 -1 0 0 0 0 0 0 -5 5 0 0. 9.
 15 1 1 2 0 0 -3.3757 3.22383 -0.0260486 4.99468 1.7768 0. -1
 -15 1 1 2 0 0 3.3757 -3.22383 0.0153652 4.99464 1.7768 0. 1
</event>
<event>
 4 80 1 -1 -1 -1
 11 -1 0 0 0 0 0 0 5 5 0 0. 9.
 -11 -1 0 0 0 0 0 0 -4.99999 4.99999 0 0. 9.
 15 1 1 2 0 0 -2.701 -0.784914 3.73239 5 1.7768 0. -1
 -15 1 1 2 0 0 2.701 0.784914 -3.73238 4.99999 1.7768 0. 1
</event>
<event>
 4 80 1 -1 -1 -1
 11 -1 0 0 0 0 0 0 5 5 0 0. 9.
 -11 -1 0 0 0 0 0 0 -5 5 0 0. 9.
 15 1 1 2 0 0 -1.7358 0.96729 -4.23009 5 1.7768 0. -1
 -15 1 1 2 0 0 1.7358 -0.96729 4.23009 5 1.7768 0. 1
</event>
<event>
 4 80 1 -1 -1 -1
 11 -1 0 0 0 0 0 0 4.90637 4.90637 0 0. 9.
 -11 -1 0 0 0 0 0 0 -5 5 0 0. 9.
 15 1 1 2 0 0 1.70426 0.700376 4.19355 4.91311 1.7768 0. 1
 -15 1 1 2 0 0 -1.70426 -0.700376 -4.28718 4.99326 1.7768 0. -1
</event>
<event>
 4 80 1 -1 -1 -1
 11 -1 0 0 0 0 0 0 5 5 0 0. 9.
 -11 -1 0 0 0 0 0 0 -4.96004 4.96004 0 0. 9.
 15 1 1 2 0 0 -3.25246 0.48466 -3.2708 4.96681 1.7768 0. 1
 -15 1 1 2 0 0 3.25246 -0.48466 3.31076 4.99322 1.7768 0. -1
</event>
<event>
 4 80 1 -1 -1 -1
 11 -1 0 0 0 0 0 0 4.99756 4.99756 0 0. 9.
 -11 -1 0 0 0 0 0 0 -1.20864 1.20864 0 0. 9.
 15 1 1 2 0 0 1.58993 -0.0813674 2.63933 3.55785 1.7768 0. -1
 -15 1 1 2 0 0 -1.58993 0.0813674 1.14959 2.64835 1.7768 0. 1
</event>
<event>
 4 80 1 -1 -1 -1
 11 -1 0 0 0 0 0 0 1.15564 1.15564 0 0. 9.
 -11 -1 0 0 0 0 0 0 -4.99252 4.99252 0 0. 9.
 15 1 1 2 0 0 -1.32073 -0.17197 -3.08996 3.80519 1.7768 0. -1
 -15 1 1 2 0 0 1.32073 0.17197 -0.746926 2.34297 1.7768 0. 1
</event>
<event>
 4 80 1 -1 -1 -1
 11 -1 0 0 0 0 0 0 5 5 0 0. 9.
 -11 -1 0 0 0 0 0 0 -5 5 0 0. 9.
 15 1 1 2 0 0 -1.71001 -4.32229 -0.485752 5 1.7768 0. -1
 -15 1 1 2 0 0 1.71001 4.32229 0.485752 5 1.7768 0. 1
</event>
<event>
 4 80 1 -1 -1 -1
 11 -1 0 0 0 0 0 0 3.78038 3.78038 0 0. 9.
 -11 -1 0 0 0 0 0 0 -5 5 0 0. 9.
 15 1 1 2 0 0 -3.9505 0.246552 -0.329672 4.35128 1.7768 0. 1
 -15 1 1 2 0 0 3.9505 -0.246552 -0.889949 4.4291 1.7768 0. -1
</event>
<event>
 4 80 1 -1 -1 -1
 11 -1 0 0 0 0 0 0 5 5 0 0. 9.
 -11 -1 0 0 0 0 0 0 -5 5 0 0. 9.
 15 1 1 2 0 0 4.58941 0.843595 0.260579 5 1.7768 0. 1
 -15 1 1 2 0 0 -4.58941 -0.843595 -0.260579 5 1.7768 0. -1
</event>
<event>
 4 80 1 -1 -1 -1
 11 -1 0 0 0 0 0 0 4.81418 4.81418 0 0. 9.
 -11 -1 0 0 0 0 0 0 -5 5 0 0. 9.
 15 1 1 2 0 0 4.23964 0.869839 1.38452 4.87912 1.7768 0. -1
 -15 1 1 2 0 0 -4.23964 -0.869839 -1.57034 4.93506 1.7768 0. 1
</event>
<event>
 4 80 1 -1 -1 -1
 11 -1 0 0 0 0 0 0 4.99997 4.99997 0 0. 9.
 -11 -1 0 0 0 0 0 0 -5 5 0 0. 9.
 15 1 1 2 0 0 3.11942 -2.00525 2.84433 4.99998 1.7768 0. -1
 -15 1 1 2 0 0 -3.11942 2.00525 -2.84436 4.99999 1.7768 0. 1
</event>
<event>
 4 80 1 -1 -1 -1
 11 -1 0 0 0 0 0 0 4.48776 4.48776 0 0. 9.
 -11 -1 0 0 0 0 0 0 -4.99979 4.99979 0 0. 9.
 15 1 1 2 0 0 0.688662 -4.09805 -1.67648 4.82043 1.7768 0. 1
 -15 1 1 2 0 0 -0.688662 4.09805 1.16445 4.66711 1.7768 0. -1
</event>
<event>
 4 80 1 -1 -1 -1
 11 -1 0 0 0 0 0 0 4.97654 4.97654 0 0. 9.
 -11 -1 0 0 0 0 0 0 -4.99999 4.99999 0 0. 9.
 15 1 1 2 0 0 -2.05011 0.95242 4.06441 4.97868 1.7768 0. -1
 -15 1 1 2 0 0 2.05011 -0.95242 -4.08786 4.99784 1.7768 0. 1
</event>
<event>
 4 80 1 -1 -1 -1
 11 -1 0 0 0 0 0 0 5 5 0 0. 9.
 -11 -1 0 0 0 0 0 0 -1.41677 1.41677 0 0. 9.
 15 1 1 2 0 0 0.891566 -1.36997 0.441489 2.45446 1.7768 0. 1
 -15 1 1 2 0 0 -0.891566 1.36997 3.14174 3.96232 1.7768 0. -1
</event>
<event>
 4 80 1 -1 -1 -1
 11 -1 0 0 0 0 0 0 4.99926 4.99926 0 0. 9.
 -11 -1 0 0 0 0 0 0 -4.99969 4.99969 0 0. 9.
 15 1 1 2 0 0 -3.68863 0.338917 2.84867 4.99935 1.7768 0. 1
 -15 1 1 2 0 0 3.68863 -0.338917 -2.8491 4.9996 1.7768 0. -1
</event>
<event>
 4 80 1 -1 -1 -1
 11 -1 0 0 0 0 0 0 5 5 0 0. 9.
 -11 -1 0 0 0 0 0 0 -5 5 0 0. 9.
 15 1 1 2 0 0 -2.55062 1.52563 -3.6068 5 1.7768 0. -1
 -15 1 1 2 0 0 2.55062 -1.52563 3.6068 5 1.7768 0. 1
</event>
<event>
 4 80 1 -1 -1 -1
 11 -1 0 0 0 0 0 0 5 5 0 0. 9.
 -11 -1 0 0 0 0 0 0 -5 5 0 0. 9.
 15 1 1 2 0 0 4.3347 0.224608 -1.73268 5 1.7768 0. 1
 -15 1 1 2 0 0 -4.3347 -0.224608 1.73268 5 1.7768 0. -1
</event>
<event>
 4 80 1 -1 -1 -1
 11 -1 0 0 0 0 0 0 5 5 0 0. 9.
 -11 -1 0 0 0 0 0 0 -5 5 0 0. 9.
 15 1 1 2 0 0 2.22398 3.3205 -2.42291 5 1.7768 0. 1
 -15 1 1 2 0 0 -2.22398 -3.3205 2.42291 5 1.7768 0. -1
</event>
<event>
 4 80 1 -1 -1 -1
 11 -1 0 0 0 0 0 0 5 5 0 0. 9.
 -11 -1 0 0 0 0 0 0 -5 5 0 0. 9.
 15 1 1 2 0 0 0.609088 -4.61211 0.446933 5 1.7768 0. -1
 -15 1 1 2 0 0 -0.609088 4.61211 -0.446933 5 1.7768 0. 1
</event>
<event>
 4 80 1 -1 -1 -1
 11 -1 0 0 0 0 0 0 5 5 0 0. 9.
 -11 -1 0 0 0 0 0 0 -4.95665 4.95665 0 0. 9.
 15 1 1 2 0 0 2.03005 -2.46917 3.39923 4.99303 1.7768 0. -1
 -15 1 1 2 0 0 -2.03005 2.46917 -3.35587 4.96362 1.7768 0. 1
</event>
<event>
 4 80 1 -1 -1 -1
 11 -1 0 0 0 0 0 0 5 5 0 0. 9.
 -11 -1 0 0 0 0 0 0 -5 5 0 0. 9.
 15 1 1 2 0 0 -4.42184 -0.807643 1.27957 5 1.7768 0. -1
 -15 1 1 2 0 0 4.42184 0.807643 -1.27957 5 1.7768 0. 1
</event>
<event>
 4 80 1 -1 -1 -1
 11 -1 0 0 0 0 0 0 4.99999 4.99999 0 0. 9.
 -11 -1 0 0 0 0 0 0 -5 5 0 0. 9.
 15 1 1 2 0 0 -3.72848 2.10114 1.87771 4.99999 1.7768 0. -1
 -15 1 1 2 0 0 3.72848 -2.10114 -1.87773 5 1.7768 0. 1
</event>
<event>
 4 80 1 -1 -1 -1
 11 -1 0 0 0 0 0 0 4.8982 4.8982 0 0. 9.
 -11 -1 0 0 0 0 0 0 -5 5 0 0. 9.
 15 1 1 2 0 0 4.22817 1.4423 1.12204 4.93704 1.7768 0. 1
 -15 1 1 2 0 0 -4.22817 -1.4423 -1.22383 4.96116 1.7768 0. -1
</event>
<event>
 4 80 1 -1 -1 -1
 11 -1 0 0 0 0 0 0 5 5 0 0. 9.
 -11 -1 0 0 0 0 0 0 -0.701595 0.701595 0 0. 9.
 15 1 1 2 0 0 -0.251199 0.494686 2.46273 3.08716 1.7768 0. -1
 -15 1 1 2 0 0 0.251199 -0.494686 1.83568 2.61443 1.7768 0. 1
</event>
<event>
 4 80 1 -1 -1 -1
 11 -1 0 0 0 0 0 0 5 5 0 0. 9.
 -11 -1 0 0 0 0 0 0 -4.99883 4.99883 0 0. 9.
 15 1 1 2 0 0 -3.60006 0.602843 2.91822 4.99976 1.7768 0. 1
 -15 1 1 2 0 0 3.60006 -0.602843 -2.91705 4.99907 1.7768 0. -1
</event>
<event>
 4 80 1 -1 -1 -1
 11 -1 0 0 0 0 0 0 4.98228 4.98228 0 0. 9.
 -11 -1 0 0 0 0 0 0 -5 5 0 0. 9.
 15 1 1 2 0 0 2.05358 -3.89323 -1.55134 4.99388 1.7768 0. 1
 -15 1 1 2 0 0 -2.05358 3.89323 1.53362 4.9884 1.7768 0. -1
</event>
<event>
 4 80 1 -1 -1 -1
 11 -1 0 0 0 0 0 0 4.48838 4.48838 0 0. 9.
 -11 -1 0 0 0 0 0 0 -4.95016 4.95016 0 0. 9.
 15 1 1 2 0 0 -1.50568 -1.44434 -4.0705 4.90712 1.7768 0. 1
 -15 1 1 2 0 0 1.50568 1.44434 3.60872 4.53142 1.7768 0. -1
</event>
<event>
 4 80 1 -1 -1 -1
 11 -1 0 0 0 0 0 0 4.9256 4.9256 0 0. 9.
 -11 -1 0 0 0 0 0 0 -4.99999 4.99999 0 0. 9.
 15 1 1 2 0 0 1.61078 3.88061 -1.99083 4.97744 1.7768 0. 1
 -15 1 1 2 0 0 -1.61078 -3.88061 1.91644 4.94815 1.7768 0. -1
</event>
<event>
 4 80 1 -1 -1 -1
 11 -1 0 0 0 0 0 0 2.93742 2.93742 0 0. 9.
 -11 -1 0 0 0 0 0 0 -5 5 0 0. 9.
 15 1 1 2 0 0 -0.982858 -1.53869 -3.99596 4.7391 1.7768 0. 1
 -15 1 1 2 0 0 0.982858 1.53869 1.93339 3.19833 1.7768 0. -1
</event>
<event>
 4 80 1 -1 -1 -1
 11 -1 0 0 0 0 0 0 5 5 0 0. 9.
 -11 -1 0 0 0 0 0 0 -4.99729 4.99729 0 0. 9.
 15 1 1 2 0 0 0.0933644 3.86294 2.62771 4.99936 1.7768 0. 1
 -15 1 1 2 0 0 -0.0933644 -3.86294 -2.625 4.99794 1.7768 0. -1
</event>
<event>
 4 80 1 -1 -1 -1
 11 -1 0 0 0 0 0 0 5 5 0 0. 9.
 -11 -1 0 0 0 0 0 0 -1.04113 1.04113 0 0. 9.
 15 1 1 2 0 0 -1.22072 -0.0293995 0.99147 2.37314 1.7768 0. 1
 -15 1 1 2 0 0 1.22072 0.0293995 2.9674 3.668 1.7768 0. -1
</event>
<event>
 4 80 1 -1 -1 -1
 11 -1 0 0 0 0 0 0 2.82182 2.82182 0 0. 9.
 -11 -1 0 0 0 0 0 0 -5 5 0 0. 9.
 15 1 1 2 0 0 3.14489 -0.401568 -2.07673 4.18594 1.7768 0. -1
 -15 1 1 2 0 0 -3.14489 0.401568 -0.101453 3.63588 1.7768 0. 1
</event>
<event>
 4 80 1 -1 -1 -1
 11 -1 0 0 0 0 0 0 4.81796 4.81796 0 0. 9.
 -11 -1 0 0 0 0 0 0 -5 5 0 0. 9.
 15 1 1 2 0 0 -2.28839 -0.0451204 -4.05318 4.98244 1.7768 0. -1
 -15 1 1 2 0 0 2.28839 0.0451204 3.87114 4.83552 1.7768 0. 1
</event>
<event>
 4 80 1 -1 -1 -1
 11 -1 0 0 0 0 0 0 5 5 0 0. 9.
 -11 -1 0 0 0 0 0 0 -5 5 0 0. 9.
 15 1 1 2 0 0 -1.34271 -4.23441 1.45231 5 1.7768 0. -1
 -15 1 1 2 0 0 1.34271 4.23441 -1.45231 5 1.7768 0. 1
</event>
<event>
 4 80 1 -1 -1 -1
 11 -1 0 0 0 0 0 0 4.99997 4.99997 0 0. 9.
 -11 -1 0 0 0 0 0 0 -5 5 0 0. 9.
 15 1 1 2 0 0 4.41001 -0.128852 -1.54188 4.99999 1.7768 0. -1
 -15 1 1 2 0 0 -4.41001 0.128852 1.54186 4.99998 1.7768 0. 1
</event>
<event>
 4 80 1 -1 -1 -1
 11 -1 0 0 0 0 0 0 4.91815 4.91815 0 0. 9.
 -11 -1 0 0 0 0 0 0 -5 5 0 0. 9.
 15 1 1 2 0 0 -2.86681 -3.48306 -1.0815 4.96766 1.7768 0. 1
 -15 1 1 2 0 0 2.86681 3.48306 0.999649 4.95049 1.7768 0. -1
</event>
<event>
 4 80 1 -1 -1 -1
 11 -1 0 0 0 0 0 0 3.02833 3.02833 0 0. 9.
 -11 -1 0 0 0 0 0 0 -5 5 0 0. 9.
 15 1 1 2 0 0 -3.08632 -1.52517 -1.36125 4.10637 1.7768 0. 1
 -15 1 1 2 0 0 3.08632 1.52517 -0.610414 3.92197 1.7768 0. -1
</event>
<event>
 4 80 1 -1 -1 -1
 11 -1 0 0 0 0 0 0 1.77011 1.77011 0 0. 9.
 -11 -1 0 0 0 0 0 0 -2.1434 2.1434 0 0. 9.
 15 1 1 2 0 0 0.339665 -0.41212 -0.781914 2.01354 1.7768 0. 1
 -15 1 1 2 0 0 -0.339665 0.41212 0.408619 1.89998 1.7768 0. -1
</event>
<event>
 4 80 1 -1 -1 -1
 11 -1 0 0 0 0 0 0 5 5 0 0. 9.
 -11 -1 0 0 0 0 0 0 -5 5 0 0. 9.
 15 1 1 2 0 0 -2.42272 -3.14823 -2.46197 5 1.7768 0. 1
 -15 1 1 2 0 0 2.42272 3.14823 2.46197 5 1.7768 0. -1
</event>
<event>
 4 80 1 -1 -1 -1
 11 -1 0 0 0 0 0 0 4.99904 4.99904 0 0. 9.
 -11 -1 0 0 0 0 0 0 -1.13081 1.13081 0 0. 9.
 15 1 1 2 0 0 1.52933 0.380214 2.0742 3.15333 1.7768 0. -1
 -15 1 1 2 0 0 -1.52933 -0.380214 1.79403 2.97653 1.7768 0. 1
</event>
<event>
 4 80 1 -1 -1 -1
 11 -1 0 0 0 0 0 0 2.20759 2.20759 0 0. 9.
 -11 -1 0 0 0 0 0 0 -3.78679 3.78679 0 0. 9.
 15 1 1 2 0 0 -1.54157 -0.443856 0.891037 2.55443 1.7768 0. 1
 -15 1 1 2 0 0 1.54157 0.443856 -2.47024 3.43995 1.7768 0. -1
</event>
<event>
 4 80 1 -1 -1 -1
 11 -1 0 0 0 0 0 0 5 5 0 0. 9.
 -11 -1 0 0 0 0 0 0 -4.82106 4.82106 0 0. 9.
 15 1 1 2 0 0 -1.14333 -2.41471 3.80621 4.97825 1.7768 0. -1
 -15 1 1 2 0 0 1.14333 2.41471 -3.62727 4.84281 1.7768 0. 1
</event>
<event>
 4 80 1 -1 -1 -1
 11 -1 0 0 0 0 0 0 5 5 0 0. 9.
 -11 -1 0 0 0 0 0 0 -5 5 0 0. 9.
 15 1 1 2 0 0 4.26171 -0.0821435 1.91659 5 1.7768 0. 1
 -15 1 1 2 0 0 -4.26171 0.0821435 -1.91659 5 1.7768 0. -1
</event>
<event>
 4 80 1 -1 -1 -1
 11 -1 0 0 0 0 0 0 1.5927 1.5927 0 0. 9.
 -11 -1 0 0 0 0 0 0 -5 5 0 0. 9.
 15 1 1 2 0 0 -0.297948 -1.72252 -3.24887 4.09496 1.7768 0. -1
 -15 1 1 2 0 0 0.297948 1.72252 -0.158433 2.49773 1.7768 0. 1
</event>
<event>
 4 80 1 -1 -1 -1
 11 -1 0 0 0 0 0 0 4.92326 4.92326 0 0. 9.
 -11 -1 0 0 0 0 0 0 -4.25441 4.25441 0 0. 9.
 15 1 1 2 0 0 -2.27556 -2.65164 2.70261 4.76142 1.7768 0. -1
 -15 1 1 2 0 0 2.27556 2.65164 -2.03375 4.41624 1.7768 0. 1
</event>
<event>
 4 80 1 -1 -1 -1
 11 -1 0 0 0 0 0 0 5 5 0 0. 9.
 -11 -1 0 0 0 0 0 0 -4.98351 4.98351 0 0. 9.
 15 1 1 2 0 0 -0.101091 -1.14181 -4.51347 4.98429 1.7768 0. -1
 -15 1 1 2 0 0 0.101091 1.14181 4.52996 4.99922 1.7768 0. 1
</event>
<event>
 4 80 1 -1 -1 -1
 11 -1 0 0 0 0 0 0 4.99911 4.99911 0 0. 9.
 -11 -1 0 0 0 0 0 0 -2.71249 2.71249 0 0. 9.
 15 1 1 2 0 0 0.22459 3.12309 1.95315 4.09593 1.7768 0. 1
 -15 1 1 2 0 0 -0.22459 -3.12309 0.333476 3.61567 1.7768 0. -1
</event>
<event>
 4 80 1 -1 -1 -1
 11 -1 0 0 0 0 0 0 4.90419 4.90419 0 0. 9.
 -11 -1 0 0 0 0 0 0 -4.99986 4.99986 0 0. 9.
 15 1 1 2 0 0 -1.40938 -1.11741 -4.30568 4.99315 1.7768 0. 1
 -15 1 1 2 0 0 1.40938 1.11741 4.21001 4.9109 1.7768 0. -1
</event>
<event>
 4 80 1 -1 -1 -1
 11 -1 0 0 0 0 0 0 3.21838 3.21838 0 0. 9.
 -11 -1 0 0 0 0 0 0 -5 5 0 0. 9.
 15 1 1 2 0 0 0.940441 -1.71329 2.20174 3.43878 1.7768 0. -1
 -15 1 1 2 0 0 -0.940441 1.71329 -3.98336 4.77961 1.7768 0. 1
</event>
<event>
 4 80 1 -1 -1 -1
 11 -1 0 0 0 0 0 0 4.45302 4.45302 0 0. 9.
 -11 -1 0 0 0 0 0 0 -5 5 0 0. 9.
 15 1 1 2 0 0 -0.288665 1.75722 3.72522 4.49513 1.7768 0. -1
 -15 1 1 2 0 0 0.288665 -1.75722 -4.27221 4.95789 1.7768 0. 1
</event>
<event>
 4 80 1 -1 -1 -1
 11 -1 0 0 0 0 0 0 4.73165 4.73165 0 0. 9.
 -11 -1 0 0 0 0 0 0 -4.99987 4.99987 0 0. 9.
 15 1 1 2 0 0 -3.40006 1.05315 2.66524 4.78861 1.7768 0. 1
 -15 1 1 2 0 0 3.40006 -1.05315 -2.93345 4.94292 1.7768 0. -1
</event>
<event>
 4 80 1 -1 -1 -1
 11 -1 0 0 0 0 0 0 5 5 0 0. 9.
 -11 -1 0 0 0 0 0 0 -5 5 0 0. 9.
 15 1 1 2 0 0 -2.94646 3.47763 1.03283 5 1.7768 0. 1
 -15 1 1 2 0 0 2.94646 -3.47763 -1.03283 5 1.7768 0. -1
</event>
<event>
 4 80 1 -1 -1 -1
 11 -1 0 0 0 0 0 0 5 5 0 0. 9.
 -11 -1 0 0 0 0 0 0 -4.9914 4.9914 0 0. 9.
 15 1 1 2 0 0 -0.0115676 2.2246 4.10921 4.99923 1.7768 0. 1
 -15 1 1 2 0 0 0.0115676 -2.2246 -4.10061 4.99217 1.7768 0. -1
</event>
<event>
 4 80 1 -1 -1 -1
 11 -1 0 0 0 0 0 0 1.10593 1.10593 0 0. 9.
 -11 -1 0 0 0 0 0 0 -4.99951 4.99951 0 0. 9.
 15 1 1 2 0 0 0.85901 -0.228244 -3.57938 4.09386 1.7768 0. 1
 -15 1 1 2 0 0 -0.85901 0.228244 -0.314203 2.01158 1.7768 0. -1
</event>
<event>
 4 80 1 -1 -1 -1
 11 -1 0 0 0 0 0 0 4.58682 4.58682 0 0. 9.
 -11 -1 0 0 0 0 0 0 -5 5 0 0. 9.
 15 1 1 2 0 0 0.387546 1.83068 -4.24454 4.96744 1.7768 0. -1
 -15 1 1 2 0 0 -0.387546 -1.83068 3.83137 4.61938 1.7768 0. 1
</event>
<event>
 4 80 1 -1 -1 -1
 11 -1 0 0 0 0 0 0 4.99734 4.99734 0 0. 9.
 -11 -1 0 0 0 0 0 0 -5 5 0 0. 9.
 15 1 1 2 0 0 -2.55661 3.59511 -1.54013 4.99908 1.7768 0. 1
 -15 1 1 2 0 0 2.55661 -3.59511 1.53747 4.99826 1.7768 0. -1
</event>
<event>
 4 80 1 -1 -1 -1
 11 -1 0 0 0 0 0 0 5 5 0 0. 9.
 -11 -1 0 0 0 0 0 0 -5 5 0 0. 9.
 15 1 1 2 0 0 -3.06528 -0.557636 -3.48359 5 1.7768 0. 1
 -15 1 1 2 0 0 3.06528 0.557636 3.48359 5 1.7768 0. -1
</event>
<event>
 4 80 1 -1 -1 -1
 11 -1 0 0 0 0 0 0 5 5 0 0. 9.
 -11 -1 0 0 0 0 0 0 -4.99991 4.99991 0 0. 9.
 15 1 1 2 0 0 2.85028 -0.375462 -3.68462 4.99992 1.7768 0. 1
 -15 1 1 2 0 0 -2.85028 0.375462 3.6847 4.99999 1.7768 0. -1
</event>
<event>
 4 80 1 -1 -1 -1
 11 -1 0 0 0 0 0 0 5 5 0 0. 9.
 -11 -1 0 0 0 0 0 0 -5 5 0 0. 9.
 15 1 1 2 0 0 -2.42761 -0.371165 -3.97633 5 1.7768 0. -1
 -15 1 1 2 0 0 2.42761 0.371165 3.97633 5 1.7768 0. 1
</event>
<event>
 4 80 1 -1 -1 -1
 11 -1 0 0 0 0 0 0 4.79899 4.79899 0 0. 9.
 -11 -1 0 0 0 0 0 0 -4.99999 4.99999 0 0. 9.
 15 1 1 2 0 0 -1.69037 1.98467 3.64742 4.82261 1.7768 0. -1
 -15 1 1 2 0 0 1.69037 -1.98467 -3.84841 4.97637 1.7768 0. 1
</event>
<event>
 4 80 1 -1 -1 -1
 11 -1 0 0 0 0 0 0 4.99959 4.99959 0 0. 9.
 -11 -1 0 0 0 0 0 0 -5 5 0 0. 9.
 15 1 1 2 0 0 -4.17033 -0.982413 -1.86659 4.99987 1.7768 0. 1
 -15 1 1 2 0 0 4.17033 0.982413 1.86618 4.99972 1.7768 0. -1
</event>
<event>
 4 80 1 -1 -1 -1
 11 -1 0 0 0 0 0 0 4.99991 4.99991 0 0. 9.
 -11 -1 0 0 0 0 0 0 -4.99966 4.99966 0 0. 9.
 15 1 1 2 0 0 -4.10031 -2.21712 -0.334582 4.99978 1.7768 0. -1
 -15 1 1 2 0 0 4.10031 2.21712 0.334836 4.9998 1.7768 0. 1
</event>
<event>
 4 80 1 -1 -1 -1
 11 -1 0 0 0 0 0 0 5 5 0 0. 9.
 -11 -1 0 0 0 0 0 0 -4.96927 4.96927 0 0. 9.
 15 1 1 2 0 0 1.21033 -1.71664 4.17193 4.99745 1.7768 0. 1
 -15 1 1 2 0 0 -1.21033 1.71664 -4.1412 4.97182 1.7768 0. -1
</event>
<event>
 4 80 1 -1 -1 -1
 11 -1 0 0 0 0 0 0 2.47799 2.47799 0 0. 9.
 -11 -1 0 0 0 0 0 0 -4.99079 4.99079 0 0. 9.
 15 1 1 2 0 0 1.40142 1.87726 0.792091 3.0452 1.7768 0. 1
 -15 1 1 2 0 0 -1.40142 -1.87726 -3.30489 4.42359 1.7768 0. -1
</event>
<event>
 4 80 1 -1 -1 -1
 11 -1 0 0 0 0 0 0 5 5 0 0. 9.
 -11 -1 0 0 0 0 0 0 -4.9999 4.9999 0 0. 9.
 15 1 1 2 0 0 1.54351 4.35084 0.727728 4.99996 1.7768 0. -1
 -15 1 1 2 0 0 -1.54351 -4.35084 -0.727626 4.99994 1.7768 0. 1
</event>
<event>
 4 80 1 -1 -1 -1
 11 -1 0 0 0 0 0 0 5 5 0 0. 9.
 -11 -1 0 0 0 0 0 0 -5 5 0 0. 9.
 15 1 1 2 0 0 0.0810622 3.77067 2.76002 5 1.7768 0. 1
 -15 1 1 2 0 0 -0.0810622 -3.77067 -2.76002 5 1.7768 0. -1
</event>
<event>
 4 80 1 -1 -1 -1
 11 -1 0 0 0 0 0 0 5 5 0 0. 9.
 -11 -1 0 0 0 0 0 0 -5 5 0 0. 9.
 15 1 1 2 0 0 -2.38645 -3.58673 -1.81176 5 1.7768 0. -1
 -15 1 1 2 0 0 2.38645 3.58673 1.81176 5 1.7768 0. 1
</event>
<event>
 4 80 1 -1 -1 -1
 11 -1 0 0 0 0 0 0 4.99999 4.99999 0 0. 9.
 -11 -1 0 0 0 0 0 0 -3.84145 3.84145 0 0. 9.
 15 1 1 2 0 0 2.42034 -0.875074 -2.51756 4.01493 1.7768 0. -1
 -15 1 1 2 0 0 -2.42034 0.875074 3.67609 4.82651 1.7768 0. 1
</event>
<event>
 4 80 1 -1 -1 -1
 11 -1 0 0 0 0 0 0 5 5 0 0. 9.
 -11 -1 0 0 0 0 0 0 -5 5 0 0. 9.
 15 1 1 2 0 0 3.22208 -3.33985 0.55306 5 1.7768 0. 1
 -15 1 1 2 0 0 -3.22208 3.33985 -0.55306 5 1.7768 0. -1
</event>
<event>
 4 80 1 -1 -1 -1
 11 -1 0 0 0 0 0 0 4.99988 4.99988 0 0. 9.
 -11 -1 0 0 0 0 0 0 -5 5 0 0. 9.
 15 1 1 2 0 0 4.54092 0.0745043 1.10275 4.99993 1.7768 0. 1
 -15 1 1 2 0 0 -4.54092 -0.0745043 -1.10287 4.99995 1.7768 0. -1
</event>
<event>
 4 80 1 -1 -1 -1
 11 -1 0 0 0 0 0 0 4.98801 4.98801 0 0. 9.
 -11 -1 0 0 0 0 0 0 -5 5 0 0. 9.
 15 1 1 2 0 0 -0.443199 -1.14566 4.4966 4.9886 1.7768 0. 1
 -15 1 1 2 0 0 0.443199 1.14566 -4.50859 4.99941 1.7768 0. -1
</event>
<event>
 4 80 1 -1 -1 -1
 11 -1 0 0 0 0 0 0 5 5 0 0. 9.
 -11 -1 0 0 0 0 0 0 -4.99896 4.99896 0 0. 9.
 15 1 1 2 0 0 -2.49418 -0.299012 -3.93988 4.99907 1.7768 0. 1
 -15 1 1 2 0 0 2.49418 0.299012 3.94092 4.99989 1.7768 0. -1
</event>
<event>
 4 80 1 -1 -1 -1
 11 -1 0 0 0 0 0 0 5 5 0 0. 9.
 -11 -1 0 0 0 0 0 0 -5 5 0 0. 9.
 15 1 1 2 0 0 2.53638 -1.4681 3.64057 5 1.7768 0. -1
 -15 1 1 2 0 0 -2.53638 1.4681 -3.64057 5 1.7768 0. 1
</event>
<event>
 4 80 1 -1 -1 -1
 11 -1 0 0 0 0 0 0 5 5 0 0. 9.
 -11 -1 0 0 0 0 0 0 -3.04474 3.04474 0 0. 9.
 15 1 1 2 0 0 -0.0614563 -2.62893 -1.36209 3.4537 1.7768 0. -1
 -15 1 1 2 0 0 0.0614563 2.62893 3.31736 4.59104 1.7768 0. 1
</event>
<event>
 4 80 1 -1 -1 -1
 11 -1 0 0 0 0 0 0 4.99993 4.99993 0 0. 9.
 -11 -1 0 0 0 0 0 0 -5 5 0 0. 9.
 15 1 1 2 0 0 2.11513 0.49839 4.13757 4.99994 1.7768 0. 1
 -15 1 1 2 0 0 -2.11513 -0.49839 -4.13764 4.99999 1.7768 0. -1
</event>
<event>
 4 80 1 -1 -1 -1
 11 -1 0 0 0 0 0 0 5 5 0 0. 9.
 -11 -1 0 0 0 0 0 0 -5 5 0 0. 9.
 15 1 1 2 0 0 -1.13046 4.51825 0.387005 5 1.7768 0. 1
 -15 1 1 2 0 0 1.13046 -4.51825 -0.387005 5 1.7768 0. -1
</event>
<event>
 4 80 1 -1 -1 -1
 11 -1 0 0 0 0 0 0 4.95656 4.95656 0 0. 9.
 -11 -1 0 0 0 0 0 0 -4.87838 4.87838 0 0. 9.
 15 1 1 2 0 0 -0.146871 1.56959 -4.26652 4.88325 1.7768 0. 1
 -15 1 1 2 0 0 0.146871 -1.56959 4.3447 4.9517 1.7768 0. -1
</event>
<event>
 4 80 1 -1 -1 -1
 11 -1 0 0 0 0 0 0 5 5 0 0. 9.
 -11 -1 0 0 0 0 0 0 -5 5 0 0. 9.
 15 1 1 2 0 0 0.436677 -4.6257 0.504508 5 1.7768 0. 1
 -15 1 1 2 0 0 -0.436677 4.6257 -0.504508 5 1.7768 0. -1
</event>
<event>
 4 80 1 -1 -1 -1
 11 -1 0 0 0 0 0 0 1.79262 1.79262 0 0. 9.
 -11 -1 0 0 0 0 0 0 -4.99993 4.99993 0 0. 9.
 15 1 1 2 0 0 -1.42847 1.87549 -1.03958 3.12992 1.7768 0. -1
 -15 1 1 2 0 0 1.42847 -1.87549 -2.16773 3.66262 1.7768 0. 1
</event>
<event>
 4 80 1 -1 -1 -1
 11 -1 0 0 0 0 0 0 4.99472 4.99472 0 0. 9.
 -11 -1 0 0 0 0 0 0 -5 5 0 0. 9.
 15 1 1 2 0 0 0.904644 4.14151 -1.9636 4.9984 1.7768 0. -1
 -15 1 1 2 0 0 -0.904644 -4.14151 1.95832 4.99633 1.7768 0. 1
</event>
<event>
 4 80 1 -1 -1 -1
 11 -1 0 0 0 0 0 0 4.95745 4.95745 0 0. 9.
 -11 -1 0 0 0 0 0 0 -3.55137 3.55137 0 0. 9.
 15 1 1 2 0 0 2.1788 -3.07983 1.17368 4.33218 1.7768 0. -1
 -15 1 1 2 0 0 -2.1788 3.07983 0.232401 4.17664 1.7768 0. 1
</event>
<event>
 4 80 1 -1 -1 -1
 11 -1 0 0 0 0 0 0 5 5 0 0. 9.
 -11 -1 0 0 0 0 0 0 -5 5 0 0. 9.
 15 1 1 2 0 0 -0.576832 -3.50645 3.03551 5 1.7768 0. 1
 -15 1 1 2 0 0 0.576832 3.50645 -3.03551 5 1.7768 0. -1
</event>
<event>
 4 80 1 -1 -1 -1
 11 -1 0 0 0 0 0 0 4.68032 4.68032 0 0. 9.
 -11 -1 0 0 0 0 0 0 -4.81887 4.81887 0 0. 9.
 15 1 1 2 0 0 -1.18258 -1.10472 -4.16571 4.80934 1.7768 0. -1
 -15 1 1 2 0 0 1.18258 1.10472 4.02716 4.68985 1.7768 0. 1
</event>
<event>
 4 80 1 -1 -1 -1
 11 -1 0 0 0 0 0 0 5 5 0 0. 9.
 -11 -1 0 0 0 0 0 0 -5 5 0 0. 9.
 15 1 1 2 0 0 2.95571 -0.242527 3.6121 5 1.7768 0. -1
 -15 1 1 2 0 0 -2.95571 0.242527 -3.6121 5 1.7768 0. 1
</event>
<event>
 4 80 1 -1 -1 -1
 11 -1 0 0 0 0 0 0 3.35723 3.35723 0 0. 9.
 -11 -1 0 0 0 0 0 0 -5 5 0 0. 9.
 15 1 1 2 0 0 -2.16104 -1.54421 1.79357 3.6646 1.7768 0. 1
 -15 1 1 2 0 0 2.16104 1.54421 -3.43634 4.69263 1.7768 0. -1
</event>
<event>
 4 80 1 -1 -1 -1
 11 -1 0 0 0 0 0 0 0.641355 0.641355 0 0. 9.
 -11 -1 0 0 0 0 0 0 -5 5 0 0. 9.
 15 1 1 2 0 0 0.199137 -0.0216931 -2.03054 2.70573 1.7768 0. 1
 -15 1 1 2 0 0 -0.199137 0.0216931 -2.3281 2.93563 1.7768 0. -1
</event>
<event>
 4 80 1 -1 -1 -1
 11 -1 0 0 0 0 0 0 0.996458 0.996458 0 0. 9.
 -11 -1 0 0 0 0 0 0 -5 5 0 0. 9.
 15 1 1 2 0 0 -0.222928 -0.42949 -3.69573 4.1292 1.7768 0. -1
 -15 1 1 2 0 0 0.222928 0.42949 -0.307809 1.86725 1.7768 0. 1
</event>
<event>
 4 80 1 -1 -1 -1
 11 -1 0 0 0 0 0 0 5 5 0 0. 9.
 -11 -1 0 0 0 0 0 0 -5 5 0 0. 9.
 15 1 1 2 0 0 2.25141 -3.12558 2.64654 5 1.7768 0. 1
 -15 1 1 2 0 0 -2.25141 3.12558 -2.64654 5 1.7768 0. -1
</event>
<event>
 4 80 1 -1 -1 -1
 11 -1 0 0 0 0 0 0 4.99975 4.99975 0 0. 9.
 -11 -1 0 0 0 0 0 0 -5 5 0 0. 9.
 15 1 1 2 0 0 2.92691 -0.637068 -3.58737 4.99997 1.7768 0. -1
 -15 1 1 2 0 0 -2.92691 0.637068 3.58713 4.99979 1.7768 0. 1
</event>
<event>
 4 80 1 -1 -1 -1
 11 -1 0 0 0 0 0 0 5 5 0 0. 9.
 -11 -1 0 0 0 0 0 0 -5 5 0 0. 9.
 15 1 1 2 0 0 2.31839 -1.62111 -3.72013 5 1.7768 0. -1
 -15 1 1 2 0 0 -2.31839 1.62111 3.72013 5 1.7768 0. 1
</event>
<event>
 4 80 1 -1 -1 -1
 11 -1 0 0 0 0 0 0 4.78244 4.78244 0 0. 9.
 -11 -1 0 0 0 0 0 0 -4.99998 4.99998 0 0. 9.
 15 1 1 2 0 0 1.09689 -0.416935 -4.51183 4.98912 1.7768 0. -1
 -15 1 1 2 0 0 -1.09689 0.416935 4.29429 4.7933 1.7768 0. 1
</event>
<event>
 4 80 1 -1 -1 -1
 11 -1 0 0 0 0 0 0 5 5 0 0. 9.
 -11 -1 0 0 0 0 0 0 -4.99225 4.99225 0 0. 9.
 15 1 1 2 0 0 -2.8075 0.274544 -3.71716 4.99324 1.7768 0. -1
 -15 1 1 2 0 0 2.8075 -0.274544 3.72491 4.99901 1.7768 0. 1
</event>
<event>
 4 80 1 -1 -1 -1
 11 -1 0 0 0 0 0 0 4.99992 4.99992 0 0. 9.
 -11 -1 0 0 0 0 0 0 -5 5 0 0. 9.
 15 1 1 2 0 0 4.33365 -1.20163 -1.27184 4.99997 1.7768 0. -1
 -15 1 1 2 0 0 -4.33365 1.20163 1.27176 4.99995 1.7768 0. 1
</event>
<event>
 4 80 1 -1 -1 -1
 11 -1 0 0 0 0 0 0 4.99493 4.99493 0 0. 9.
 -11 -1 0 0 0 0 0 0 -4.04293 4.04293 0 0. 9.
 15 1 1 2 0 0 -3.4721 -2.07971 -0.338305 4.43315 1.7768 0. -1
 -15 1 1 2 0 0 3.4721 2.07971 1.29031 4.6047 1.7768 0. 1
</event>
<event>
 4 80 1 -1 -1 -1
 11 -1 0 0 0 0 0 0 4.97429 4.97429 0 0. 9.
 -11 -1 0 0 0 0 0 0 -4.76721 4.76721 0 0. 9.
 15 1 1 2 0 0 -1.6095 -0.577237 -4.09646 4.78147 1.7768 0. -1
 -15 1 1 2 0 0 1.6095 0.577237 4.30354 4.96003 1.7768 0. 1
</event>
<event>
 4 80 1 -1 -1 -1
 11 -1 0 0 0 0 0 0 4.82708 4.82708 0 0. 9.
 -11 -1 0 0 0 0 0 0 -4.99987 4.99987 0 0. 9.
 15 1 1 2 0 0 3.14966 3.05208 -1.40625 4.93669 1.7768 0. -1
 -15 1 1 2 0 0 -3.14966 -3.05208 1.23345 4.89027 1.7768 0. 1
</event>
<event>
 4 80 1 -1 -1 -1
 11 -1 0 0 0 0 0 0 5 5 0 0. 9.
 -11 -1 0 0 0 0 0 0 -5 5 0 0. 9.
 15 1 1 2 0 0 2.21144 -2.70885 3.10063 5 1.7768 0. -1
 -15 1 1 2 0 0 -2.21144 2.70885 -3.10063 5 1.7768 0. 1
</event>
<event>
 4 80 1 -1 -1 -1
 11 -1 0 0 0 0 0 0 3.54446 3.54446 0 0. 9.
 -11 -1 0 0 0 0 0 0 -5 5 0 0. 9.
 15 1 1 2 0 0 -0.66594 3.221 -2.69201 4.60684 1.7768 0. 1
 -15 1 1 2 0 0 0.66594 -3.221 1.23648 3.93762 1.7768 0. -1
</event>
<event>
 4 80 1 -1 -1 -1
 11 -1 0 0 0 0 0 0 5 5 0 0. 9.
 -11 -1 0 0 0 0 0 0 -4.99893 4.99893 0 0. 9.
 15 1 1 2 0 0 0.248764 0.291309 4.65781 4.99996 1.7768 0. 1
 -15 1 1 2 0 0 -0.248764 -0.291309 -4.65674 4.99897 1.7768 0. -1
</event>
<event>
 4 80 1 -1 -1 -1
 11 -1 0 0 0 0 0 0 5 5 0 0. 9.
 -11 -1 0 0 0 0 0 0 -5 5 0 0. 9.
 15 1 1 2 0 0 -2.06091 1.29514 3.98968 5 1.7768 0. -1
 -15 1 1 2 0 0 2.06091 -1.29514 -3.98968 5 1.7768 0. 1
</event>
<event>
 4 80 1 -1 -1 -1
 11 -1 0 0 0 0 0 0 5 5 0 0. 9.
 -11 -1 0 0 0 0 0 0 -5 5 0 0. 9.
 15 1 1 2 0 0 0.575532 0.47584 4.61352 5 1.7768 0. 1
 -15 1 1 2 0 0 -0.575532 -0.47584 -4.61352 5 1.7768 0. -1
</event>
<event>
 4 80 1 -1 -1 -1
 11 -1 0 0 0 0 0 0 5 5 0 0. 9.
 -11 -1 0 0 0 0 0 0 -5 5 0 0. 9.
 15 1 1 2 0 0 0.944815 2.85186 -3.58002 5 1.7768 0. -1
 -15 1 1 2 0 0 -0.944815 -2.85186 3.58002 5 1.7768 0. 1
</event>
<event>
 4 80 1 -1 -1 -1
 11 -1 0 0 0 0 0 0 5 5 0 0. 9.
 -11 -1 0 0 0 0 0 0 -4.6035 4.6035 0 0. 9.
 15 1 1 2 0 0 -3.26724 -2.28197 2.19433 4.88416 1.7768 0. 1
 -15 1 1 2 0 0 3.26724 2.28197 -1.79783 4.71934 1.7768 0. -1
</event>
<event>
 4 80 1 -1 -1 -1
 11 -1 0 0 0 0 0 0 2.18847 2.18847 0 0. 9.
 -11 -1 0 0 0 0 0 0 -4.99999 4.99999 0 0. 9.
 15 1 1 2 0 0 -0.420947 0.72869 1.48464 2.46375 1.7768 0. -1
 -15 1 1 2 0 0 0.420947 -0.72869 -4.29616 4.72471 1.7768 0. 1
</event>
<event>
 4 80 1 -1 -1 -1
 11 -1 0 0 0 0 0 0 5 5 0 0. 9.
 -11 -1 0 0 0 0 0 0 -5 5 0 0. 9.
 15 1 1 2 0 0 3.14532 -1.92859 2.86876 5 1.7768 0. 1
 -15 1 1 2 0 0 -3.14532 1.92859 -2.86876 5 1.7768 0. -1
</event>
<event>
 4 80 1 -1 -1 -1
 11 -1 0 0 0 0 0 0 5 5 0 0. 9.
 -11 -1 0 0 0 0 0 0 -5 5 0 0. 9.
 15 1 1 2 0 0 2.67591 -3.39823 -1.77026 5 1.7768 0. 1
 -15 1 1 2 0 0 -2.67591 3.39823 1.77025 5 1.7768 0. -1
</event>
<event>
 4 80 1 -1 -1 -1
 11 -1 0 0 0 0 0 0 5 5 0 0. 9.
 -11 -1 0 0 0 0 0 0 -4.96 4.96 0 0. 9.
 15 1 1 2 0 0 -4.48164 1.24095 -0.111206 4.97947 1.7768 0. 1
 -15 1 1 2 0 0 4.48164 -1.24095 0.151204 4.98053 1.7768 0. -1
</event>
<event>
 4 80 1 -1 -1 -1
 11 -1 0 0 0 0 0 0 5 5 0 0. 9.
 -11 -1 0 0 0 0 0 0 -4.99702 4.99702 0 0. 9.
 15 1 1 2 0 0 -4.02934 2.14893 0.988345 4.9988 1.7768 0. -1
 -15 1 1 2 0 0 4.02934 -2.14893 -0.985364 4.99822 1.7768 0. 1
</event>
<event>
 4 80 1 -1 -1 -1
 11 -1 0 0 0 0 0 0 5 5 0 0. 9.
 -11 -1 0 0 0 0 0 0 -2.36581 2.36581 0 0. 9.
 15 1 1 2 0 0 1.72351 0.550035 -1.17086 2.79315 1.7768 0. 1
 -15 1 1 2 0 0 -1.72351 -0.550035 3.80505 4.57266 1.7768 0. -1
</event>
<event>
 4 80 1 -1 -1 -1
 11 -1 0 0 0 0 0 0 5 5 0 0. 9.
 -11 -1 0 0 0 0 0 0 -5 5 0 0. 9.
 15 1 1 2 0 0 4.23009 -1.179 -1.59956 5 1.7768 0. 1
 -15 1 1 2 0 0 -4.23009 1.179 1.59956 5 1.7768 0. -1
</event>
<event>
 4 80 1 -1 -1 -1
 11 -1 0 0 0 0 0 0 5 5 0 0. 9.
 -11 -1 0 0 0 0 0 0 -5 5 0 0. 9.
 15 1 1 2 0 0 4.08834 1.80915 1.36189 5 1.7768 0. -1
 -15 1 1 2 0 0 -4.08834 -1.80915 -1.36189 5 1.7768 0. 1
</event>
<event>
 4 80 1 -1 -1 -1
 11 -1 0 0 0 0 0 0 5 5 0 0. 9.
 -11 -1 0 0 0 0 0 0 -5 5 0 0. 9.
 15 1 1 2 0 0 4.66529 0.115056 -0.253125 5 1.7768 0. 1
 -15 1 1 2 0 0 -4.66529 -0.115056 0.253125 5 1.7768 0. -1
</event>
<event>
 4 80 1 -1 -1 -1
 11 -1 0 0 0 0 0 0 4.99977 4.99977 0 0. 9.
 -11 -1 0 0 0 0 0 0 -5 5 0 0. 9.
 15 1 1 2 0 0 2.82402 -3.71713 -0.221461 4.99989 1.7768 0. -1
 -15 1 1 2 0 0 -2.82402 3.71713 0.221232 4.99988 1.7768 0. 1
</event>
<event>
 4 80 1 -1 -1 -1
 11 -1 0 0 0 0 0 0 4.99999 4.99999 0 0. 9.
 -11 -1 0 0 0 0 0 0 -5 5 0 0. 9.
 15 1 1 2 0 0 1.9134 -3.47934 2.46481 4.99999 1.7768 0. 1
 -15 1 1 2 0 0 -1.9134 3.47934 -2.46482 5 1.7768 0. -1
</event>
<event>
 4 80 1 -1 -1 -1
 11 -1 0 0 0 0 0 0 4.99982 4.99982 0 0. 9.
 -11 -1 0 0 0 0 0 0 -2.68351 2.68351 0 0. 9.
 15 1 1 2 0 0 -0.372128 -2.87219 -0.276578 3.40913 1.7768 0. 1
 -15 1 1 2 0 0 0.372128 2.87219 2.59288 4.27419 1.7768 0. -1
</event>
<event>
 4 80 1 -1 -1 -1
 11 -1 0 0 0 0 0 0 4.99748 4.99748 0 0. 9.
 -11 -1 0 0 0 0 0 0 -5 5 0 0. 9.
 15 1 1 2 0 0 -3.5665 -2.62495 -1.49101 4.99912 1.7768 0. -1
 -15 1 1 2 0 0 3.5665 2.62495 1.48849 4.99836 1.7768 0. 1
</event>
<event>
 4 80 1 -1 -1 -1
 11 -1 0 0 0 0 0 0 5 5 0 0. 9.
 -11 -1 0 0 0 0 0 0 -4.99997 4.99997 0 0. 9.
 15 1 1 2 0 0 0.0801269 4.42448 -1.50322 4.99998 1.7768 0. 1
 -15 1 1 2 0 0 -0.0801269 -4.42448 1.50325 4.99999 1.7768 0. -1
</event>
<event>
 4 80 1 -1 -1 -1
 11 -1 0 0 0 0 0 0 5 5 0 0. 9.
 -11 -1 0 0 0 0 0 0 -5 5 0 0. 9.
 15 1 1 2 0 0 3.61717 -0.813465 -2.84545 5 1.7768 0. -1
 -15 1 1 2 0 0 -3.61717 0.813465 2.84545 5 1.7768 0. 1
</event>
<event>
 4 80 1 -1 -1 -1
 11 -1 0 0 0 0 0 0 5 5 0 0. 9.
 -11 -1 0 0 0 0 0 0 -4.99993 4.99993 0 0. 9.
 15 1 1 2 0 0 -2.52581 1.39617 -3.67596 4.99994 1.7768 0. 1
 -15 1 1 2 0 0 2.52581 -1.39617 3.67603 4.99999 1.7768 0. -1
</event>
<event>
 4 80 1 -1 -1 -1
 11 -1 0 0 0 0 0 0 5 5 0 0. 9.
 -11 -1 0 0 0 0 0 0 -3.37156 3.37156 0 0. 9.
 15 1 1 2 0 0 0.138376 -0.464364 4.55519 4.91347 1.7768 0. -1
 -15 1 1 2 0 0 -0.138376 0.464364 -2.92675 3.45809 1.7768 0. 1
</event>
<event>
 4 80 1 -1 -1 -1
 11 -1 0 0 0 0 0 0 4.85331 4.85331 0 0. 9.
 -11 -1 0 0 0 0 0 0 -5 5 0 0. 9.
 15 1 1 2 0 0 2.95032 -2.91732 1.90011 4.89728 1.7768 0. 1
 -15 1 1 2 0 0 -2.95032 2.91732 -2.0468 4.95603 1.7768 0. -1
</event>
<event>
 4 80 1 -1 -1 -1
 11 -1 0 0 0 0 0 0 5 5 0 0. 9.
 -11 -1 0 0 0 0 0 0 -5 5 0 0. 9.
 15 1 1 2 0 0 1.92969 -4.23294 -0.448076 5 1.7768 0. -1
 -15 1 1 2 0 0 -1.92969 4.23294 0.448076 5 1.7768 0. 1
</event>
<event>
 4 80 1 -1 -1 -1
 11 -1 0 0 0 0 0 0 4.99634 4.99634 0 0. 9.
 -11 -1 0 0 0 0 0 0 -5 5 0 0. 9.
 15 1 1 2 0 0 -0.647574 3.2176 -3.32624 4.99939 1.7768 0. -1
 -15 1 1 2 0 0 0.647574 -3.2176 3.32258 4.99695 1.7768 0. 1
</event>
<event>
 4 80 1 -1 -1 -1
 11 -1 0 0 0 0 0 0 5 5 0 0. 9.
 -11 -1 0 0 0 0 0 0 -5 5 0 0. 9.
 15 1 1 2 0 0 -3.01002 -3.49439 0.755845 5 1.7768 0. 1
 -15 1 1 2 0 0 3.01002 3.49439 -0.755845 5 1.7768 0. -1
</event>
<event>
 4 80 1 -1 -1 -1
 11 -1 0 0 0 0 0 0 4.99989 4.99989 0 0. 9.
 -11 -1 0 0 0 0 0 0 -5 5 0 0. 9.
 15 1 1 2 0 0 -0.127203 0.126951 -4.67011 5 1.7768 0. -1
 -15 1 1 2 0 0 0.127203 -0.126951 4.67001 4.9999 1.7768 0. 1
</event>
<event>
 4 80 1 -1 -1 -1
 11 -1 0 0 0 0 0 0 5 5 0 0. 9.
 -11 -1 0 0 0 0 0 0 -5 5 0 0. 9.
 15 1 1 2 0 0 4.47194 0.133334 1.35137 5 1.7768 0. 1
 -15 1 1 2 0 0 -4.47194 -0.133334 -1.35137 5 1.7768 0. -1
</event>
<event>
 4 80 1 -1 -1 -1
 11 -1 0 0 0 0 0 0 4.92192 4.92192 0 0. 9.
 -11 -1 0 0 0 0 0 0 -4.97003 4.97003 0 0. 9.
 15 1 1 2 0 0 1.17373 -2.27222 3.81835 4.92729 1.7768 0. -1
 -15 1 1 2 0 0 -1.17373 2.27222 -3.86646 4.96466 1.7768 0. 1
</event>
<event>
 4 80 1 -1 -1 -1
 11 -1 0 0 0 0 0 0 3.29316 3.29316 0 0. 9.
 -11 -1 0 0 0 0 0 0 -4.99984 4.99984 0 0. 9.
 15 1 1 2 0 0 -1.43096 -3.25963 -1.66742 4.31403 1.7768 0. 1
 -15 1 1 2 0 0 1.43096 3.25963 -0.039264 3.97896 1.7768 0. -1
</event>
<event>
 4 80 1 -1 -1 -1
 11 -1 0 0 0 0 0 0 5 5 0 0. 9.
 -11 -1 0 0 0 0 0 0 -5 5 0 0. 9.
 15 1 1 2 0 0 -3.57477 -1.71983 2.47093 5 1.7768 0. 1
 -15 1 1 2 0 0 3.57477 1.71983 -2.47093 5 1.7768 0. -1
</event>
<event>
 4 80 1 -1 -1 -1
 11 -1 0 0 0 0 0 0 5 5 0 0. 9.
 -11 -1 0 0 0 0 0 0 -5 5 0 0. 9.
 15 1 1 2 0 0 -2.51636 -3.05361 2.4871 5 1.7768 0. -1
 -15 1 1 2 0 0 2.51636 3.05361 -2.4871 5 1.7768 0. 1
</event>
<event>
 4 80 1 -1 -1 -1
 11 -1 0 0 0 0 0 0 5 5 0 0. 9.
 -11 -1 0 0 0 0 0 0 -3.38399 3.38399 0 0. 9.
 15 1 1 2 0 0 -1.52151 3.38033 0.954339 4.2202 1.7768 0. 1
 -15 1 1 2 0 0 1.52151 -3.38033 0.661667 4.16379 1.7768 0. -1
</event>
<event>
 4 80 1 -1 -1 -1
 11 -1 0 0 0 0 0 0 5 5 0 0. 9.
 -11 -1 0 0 0 0 0 0 -4.56382 4.56382 0 0. 9.
 15 1 1 2 0 0 -1.17187 -1.68768 -3.71536 4.60252 1.7768 0. -1
 -15 1 1 2 0 0 1.17187 1.68768 4.15154 4.9613 1.7768 0. 1
</event>
<event>
 4 80 1 -1 -1 -1
 11 -1 0 0 0 0 0 0 5 5 0 0. 9.
 -11 -1 0 0 0 0 0 0 -5 5 0 0. 9.
 15 1 1 2 0 0 -0.523431 -2.18389 4.09865 5 1.7768 0. -1
 -15 1 1 2 0 0 0.523431 2.18389 -4.09865 5 1.7768 0. 1
</event>
<event>
 4 80 1 -1 -1 -1
 11 -1 0 0 0 0 0 0 4.96128 4.96128 0 0. 9.
 -11 -1 0 0 0 0 0 0 -4.02986 4.02986 0 0. 9.
 15 1 1 2 0 0 -3.87728 -1.25879 0.934802 4.54417 1.7768 0. 1
 -15 1 1 2 0 0 3.87728 1.25879 -0.00338672 4.44698 1.7768 0. -1
</event>
<event>
 4 80 1 -1 -1 -1
 11 -1 0 0 0 0 0 0 5 5 0 0. 9.
 -11 -1 0 0 0 0 0 0 -5 5 0 0. 9.
 15 1 1 2 0 0 0.579998 -0.836564 4.56136 5 1.7768 0. 1
 -15 1 1 2 0 0 -0.579998 0.836564 -4.56136 5 1.7768 0. -1
</event>
<event>
 4 80 1 -1 -1 -1
 11 -1 0 0 0 0 0 0 5 5 0 0. 9.
 -11 -1 0 0 0 0 0 0 -4.9576 4.9576 0 0. 9.
 15 1 1 2 0 0 0.507098 -4.50422 -1.0205 4.97436 1.7768 0. -1
 -15 1 1 2 0 0 -0.507098 4.50422 1.06291 4.98323 1.7768 0. 1
</event>
<event>
 4 80 1 -1 -1 -1
 11 -1 0 0 0 0 0 0 5 5 0 0. 9.
 -11 -1 0 0 0 0 0 0 -4.88584 4.88584 0 0. 9.
 15 1 1 2 0 0 4.40029 -0.827937 1.16324 4.95569 1.7768 0. -1
 -15 1 1 2 0 0 -4.40029 0.827937 -1.04908 4.93015 1.7768 0. 1
</event>
<event>
 4 80 1 -1 -1 -1
 11 -1 0 0 0 0 0 0 5 5 0 0. 9.
 -11 -1 0 0 0 0 0 0 -4.99842 4.99842 0 0. 9.
 15 1 1 2 0 0 -0.63341 0.1562 -4.62617 4.99848 1.7768 0. -1
 -15 1 1 2 0 0 0.63341 -0.1562 4.62775 4.99994 1.7768 0. 1
</event>
<event>
 4 80 1 -1 -1 -1
 11 -1 0 0 0 0 0 0 5 5 0 0. 9.
 -11 -1 0 0 0 0 0 0 -5 5 0 0. 9.
 15 1 1 2 0 0 -0.947976 2.68955 3.70269 5 1.7768 0. 1
 -15 1 1 2 0 0 0.947976 -2.68955 -3.70269 5 1.7768 0. -1
</event>
<event>
 4 80 1 -1 -1 -1
 11 -1 0 0 0 0 0 0 4.99467 4.99467 0 0. 9.
 -11 -1 0 0 0 0 0 0 -5 5 0 0. 9.
 15 1 1 2 0 0 2.73702 -0.312832 3.76914 4.99533 1.7768 0. 1
 -15 1 1 2 0 0 -2.73702 0.312832 -3.77446 4.99935 1.7768 0. -1
</event>
<event>
 4 80 1 -1 -1 -1
 11 -1 0 0 0 0 0 0 5 5 0 0. 9.
 -11 -1 0 0 0 0 0 0 -5 5 0 0. 9.
 15 1 1 2 0 0 1.74168 -4.05619 -1.53497 5 1.7768 0. -1
 -15 1 1 2 0 0 -1.74168 4.05619 1.53497 5 1.7768 0. 1
</event>
<event>
 4 80 1 -1 -1 -1
 11 -1 0 0 0 0 0 0 4.89879 4.89879 0 0. 9.
 -11 -1 0 0 0 0 0 0 -5 5 0 0. 9.
 15 1 1 2 0 0 3.45228 2.94847 -0.901838 4.9581 1.7768 0. 1
 -15 1 1 2 0 0 -3.45228 -2.94847 0.800631 4.94069 1.7768 0. -1
</event>
<event>
 4 80 1 -1 -1 -1
 11 -1 0 0 0 0 0 0 5 5 0 0. 9.
 -11 -1 0 0 0 0 0 0 -4.88208 4.88208 0 0. 9.
 15 1 1 2 0 0 -1.02602 1.9315 4.11748 4.98947 1.7768 0. 1
 -15 1 1 2 0 0 1.02602 -1.9315 -3.99956 4.89261 1.7768 0. -1
</event>
<event>
 4 80 1 -1 -1 -1
 11 -1 0 0 0 0 0 0 5 5 0 0. 9.
 -11 -1 0 0 0 0 0 0 -4.99746 4.99746 0 0. 9.
 15 1 1 2 0 0 1.8979 3.17185 -2.85651 4.99801 1.7768 0. 1
 -15 1 1 2 0 0 -1.8979 -3.17185 2.85904 4.99946 1.7768 0. -1
</event>
<event>
 4 80 1 -1 -1 -1
 11 -1 0 0 0 0 0 0 5 5 0 0. 9.
 -11 -1 0 0 0 0 0 0 -5 5 0 0. 9.
 15 1 1 2 0 0 1.59936 2.44487 -3.64787 5 1.7768 0. -1
 -15 1 1 2 0 0 -1.59936 -2.44487 3.64787 5 1.7768 0. 1
</event>
<event>
 4 80 1 -1 -1 -1
 11 -1 0 0 0 0 0 0 4.94267 4.94267 0 0. 9.
 -11 -1 0 0 0 0 0 0 -4.99258 4.99258 0 0. 9.
 15 1 1 2 0 0 -2.83953 -2.07698 2.99869 4.95244 1.7768 0. -1
 -15 1 1 2 0 0 2.83953 2.07698 -3.04859 4.98282 1.7768 0. 1
</event>
<event>
 4 80 1 -1 -1 -1
 11 -1 0 0 0 0 0 0 5 5 0 0. 9.
 -11 -1 0 0 0 0 0 0 -5 5 0 0. 9.
 15 1 1 2 0 0 0.269486 4.59514 0.808898 5 1.7768 0. 1
 -15 1 1 2 0 0 -0.269486 -4.59514 -0.808898 5 1.7768 0. -1
</event>
<event>
 4 80 1 -1 -1 -1
 11 -1 0 0 0 0 0 0 5 5 0 0. 9.
 -11 -1 0 0 0 0 0 0 -4.99998 4.99998 0 0. 9.
 15 1 1 2 0 0 0.581158 -4.53554 -0.966071 4.99999 1.7768 0. 1
 -15 1 1 2 0 0 -0.581158 4.53554 0.966092 4.99999 1.7768 0. -1
</event>
<event>
 4 80 1 -1 -1 -1
 11 -1 0 0 0 0 0 0 5 5 0 0. 9.
 -11 -1 0 0 0 0 0 0 -4.99811 4.99811 0 0. 9.
 15 1 1 2 0 0 -0.619406 -0.301319 -4.62057 4.99818 1.7768 0. 1
 -15 1 1 2 0 0 0.619406 0.301319 4.62246 4.99993 1.7768 0. -1
</event>
<event>
 4 80 1 -1 -1 -1
 11 -1 0 0 0 0 0 0 1.87916 1.87916 0 0. 9.
 -11 -1 0 0 0 0 0 0 -4.99838 4.99838 0 0. 9.
 15 1 1 2 0 0 -0.594829 0.90175 -4.08558 4.58439 1.7768 0. -1
 -15 1 1 2 0 0 0.594829 -0.90175 0.96636 2.29315 1.7768 0. 1
</event>
<event>
 4 80 1 -1 -1 -1
 11 -1 0 0 0 0 0 0 4.96905 4.96905 0 0. 9.
 -11 -1 0 0 0 0 0 0 -0.852429 0.852429 0 0. 9.
 15 1 1 2 0 0 -0.491146 -0.528897 3.1139 3.6572 1.7768 0. -1
 -15 1 1 2 0 0 0.491146 0.528897 1.00272 2.16429 1.7768 0. 1
</event>
<event>
 4 80 1 -1 -1 -1
 11 -1 0 0 0 0 0 0 4.99985 4.99985 0 0. 9.
 -11 -1 0 0 0 0 0 0 -4.99984 4.99984 0 0. 9.
 15 1 1 2 0 0 -0.361942 -1.60422 -4.37449 4.99984 1.7768 0. -1
 -15 1 1 2 0 0 0.361942 1.60422 4.3745 4.99985 1.7768 0. 1
</event>
<event>
 4 80 1 -1 -1 -1
 11 -1 0 0 0 0 0 0 5 5 0 0. 9.
 -11 -1 0 0 0 0 0 0 -5 5 0 0. 9.
 15 1 1 2 0 0 -1.58978 -4.39447 -0.0592419 5 1.7768 0. 1
 -15 1 1 2 0 0 1.58978 4.39447 0.0592419 5 1.7768 0. -1
</event>
<event>
 4 80 1 -1 -1 -1
 11 -1 0 0 0 0 0 0 5 5 0 0. 9.
 -11 -1 0 0 0 0 0 0 -5 5 0 0. 9.
 15 1 1 2 0 0 -1.01774 -3.22289 -3.22792 5 1.7768 0. -1
 -15 1 1 2 0 0 1.01774 3.22289 3.22792 5 1.7768 0. 1
</event>
<event>
 4 80 1 -1 -1 -1
 11 -1 0 0 0 0 0 0 5 5 0 0. 9.
 -11 -1 0 0 0 0 0 0 -5 5 0 0. 9.
 15 1 1 2 0 0 -2.88907 1.85698 3.16973 5 1.7768 0. -1
 -15 1 1 2 0 0 2.88907 -1.85698 -3.16973 5 1.7768 0. 1
</event>
<event>
 4 80 1 -1 -1 -1
 11 -1 0 0 0 0 0 0 5 5 0 0. 9.
 -11 -1 0 0 0 0 0 0 -4.97913 4.97913 0 0. 9.
 15 1 1 2 0 0 0.366014 0.13302 -4.63567 4.97984 1.7768 0. -1
 -15 1 1 2 0 0 -0.366014 -0.13302 4.65655 4.99928 1.7768 0. 1
</event>
<event>
 4 80 1 -1 -1 -1
 11 -1 0 0 0 0 0 0 5 5 0 0. 9.
 -11 -1 0 0 0 0 0 0 -5 5 0 0. 9.
 15 1 1 2 0 0 0.75716 4.43548 1.26315 5 1.7768 0. -1
 -15 1 1 2 0 0 -0.75716 -4.43548 -1.26315 5 1.7768 0. 1
</event>
<event>
 4 80 1 -1 -1 -1
 11 -1 0 0 0 0 0 0 5 5 0 0. 9.
 -11 -1 0 0 0 0 0 0 -4.99641 4.99641 0 0. 9.
 15 1 1 2 0 0 0.284091 -0.5511 4.63212 4.99987 1.7768 0. -1
 -15 1 1 2 0 0 -0.284091 0.5511 -4.62853 4.99654 1.7768 0. 1
</event>
<event>
 4 80 1 -1 -1 -1
 11 -1 0 0 0 0 0 0 5 5 0 0. 9.
 -11 -1 0 0 0 0 0 0 -2.88307 2.88307 0 0. 9.
 15 1 1 2 0 0 -2.65575 -1.6302 2.34972 4.28829 1.7768 0. 1
 -15 1 1 2 0 0 2.65575 1.6302 -0.232791 3.59478 1.7768 0. -1
</event>
<event>
 4 80 1 -1 -1 -1
 11 -1 0 0 0 0 0 0 5 5 0 0. 9.
 -11 -1 0 0 0 0 0 0 -4.99999 4.99999 0 0. 9.
 15 1 1 2 0 0 1.60638 -1.72431 4.03591 5 1.7768 0. -1
 -15 1 1 2 0 0 -1.60638 1.72431 -4.0359 4.99999 1.7768 0. 1
</event>
<event>
 4 80 1 -1 -1 -1
 11 -1 0 0 0 0 0 0 5 5 0 0. 9.
 -11 -1 0 0 0 0 0 0 -5 5 0 0. 9.
 15 1 1 2 0 0 -2.65376 0.671484 3.788 5 1.7768 0. 1
 -15 1 1 2 0 0 2.65376 -0.671484 -3.788 5 1.7768 0. -1
</event>
<event>
 4 80 1 -1 -1 -1
 11 -1 0 0 0 0 0 0 4.99613 4.99613 0 0. 9.
 -11 -1 0 0 0 0 0 0 -4.99986 4.99986 0 0. 9.
 15 1 1 2 0 0 -1.10672 -3.56312 2.80911 4.99694 1.7768 0. 1
 -15 1 1 2 0 0 1.10672 3.56312 -2.81283 4.99904 1.7768 0. -1
</event>
<event>
 4 80 1 -1 -1 -1
 11 -1 0 0 0 0 0 0 4.9936 4.9936 0 0. 9.
 -11 -1 0 0 0 0 0 0 -5 5 0 0. 9.
 15 1 1 2 0 0 -0.105045 3.66549 -2.89516 4.99865 1.7768 0. -1
 -15 1 1 2 0 0 0.105045 -3.66549 2.88876 4.99495 1.7768 0. 1
</event>
<event>
 4 80 1 -1 -1 -1
 11 -1 0 0 0 0 0 0 5 5 0 0. 9.
 -11 -1 0 0 0 0 0 0 -5 5 0 0. 9.
 15 1 1 2 0 0 4.27472 -0.20332 1.87822 5 1.7768 0. 1
 -15 1 1 2 0 0 -4.27472 0.20332 -1.87822 5 1.7768 0. -1
</event>
<event>
 4 80 1 -1 -1 -1
 11 -1 0 0 0 0 0 0 3.45491 3.45491 0 0. 9.
 -11 -1 0 0 0 0 0 0 -5 5 0 0. 9.
 15 1 1 2 0 0 -1.54834 0.018426 -4.2545 4.86376 1.7768 0. 1
 -15 1 1 2 0 0 1.54834 -0.018426 2.70941 3.59115 1.7768 0. -1
</event>
<event>
 4 80 1 -1 -1 -1
 11 -1 0 0 0 0 0 0 5 5 0 0. 9.
 -11 -1 0 0 0 0 0 0 -5 5 0 0. 9.
 15 1 1 2 0 0 1.29588 1.41891 4.26024 5 1.7768 0. -1
 -15 1 1 2 0 0 -1.29588 -1.41891 -4.26024 5 1.7768 0. 1
</event>
<event>
 4 80 1 -1 -1 -1
 11 -1 0 0 0 0 0 0 0.644231 0.644231 0 0. 9.
 -11 -1 0 0 0 0 0 0 -5 5 0 0. 9.
 15 1 1 2 0 0 0.134365 -0.000137608 -2.51283 3.0806 1.7768 0. 1
 -15 1 1 2 0 0 -0.134365 0.000137608 -1.84294 2.56364 1.7768 0. -1
</event>
<event>
 4 80 1 -1 -1 -1
 11 -1 0 0 0 0 0 0 4.99758 4.99758 0 0. 9.
 -11 -1 0 0 0 0 0 0 -4.99774 4.99774 0 0. 9.
 15 1 1 2 0 0 -2.23816 -3.6389 1.88881 4.99763 1.7768 0. 1
 -15 1 1 2 0 0 2.23816 3.6389 -1.88898 4.99769 1.7768 0. -1
</event>
<event>
 4 80 1 -1 -1 -1
 11 -1 0 0 0 0 0 0 5 5 0 0. 9.
 -11 -1 0 0 0 0 0 0 -4.99886 4.99886 0 0. 9.
 15 1 1 2 0 0 2.72135 -3.23071 1.9989 4.99966 1.7768 0. 1
 -15 1 1 2 0 0 -2.72135 3.23071 -1.99776 4.9992 1.7768 0. -1
</event>
<event>
 4 80 1 -1 -1 -1
 11 -1 0 0 0 0 0 0 5 5 0 0. 9.
 -11 -1 0 0 0 0 0 0 -5 5 0 0. 9.
 15 1 1 2 0 0 1.53202 -4.1726 1.4438 5 1.7768 0. 1
 -15 1 1 2 0 0 -1.53202 4.1726 -1.4438 5 1.7768 0. -1
</event>
<event>
 4 80 1 -1 -1 -1
 11 -1 0 0 0 0 0 0 5 5 0 0. 9.
 -11 -1 0 0 0 0 0 0 -5 5 0 0. 9.
 15 1 1 2 0 0 -2.09959 -0.847716 -4.08844 5 1.7768 0. -1
 -15 1 1 2 0 0 2.09959 0.847716 4.08844 5 1.7768 0. 1
</event>
<event>
 4 80 1 -1 -1 -1
 11 -1 0 0 0 0 0 0 4.95722 4.95722 0 0. 9.
 -11 -1 0 0 0 0 0 0 -4.56866 4.56866 0 0. 9.
 15 1 1 2 0 0 4.3269 0.0371478 1.0706 4.79868 1.7768 0. 1
 -15 1 1 2 0 0 -4.3269 -0.0371478 -0.682041 4.72719 1.7768 0. -1
</event>
<event>
 4 80 1 -1 -1 -1
 11 -1 0 0 0 0 0 0 5 5 0 0. 9.
 -11 -1 0 0 0 0 0 0 -4.99849 4.99849 0 0. 9.
 15 1 1 2 0 0 0.435392 2.57218 -3.87598 4.99866 1.7768 0. -1
 -15 1 1 2 0 0 -0.435392 -2.57218 3.87749 4.99983 1.7768 0. 1
</event>
<event>
 4 80 1 -1 -1 -1
 11 -1 0 0 0 0 0 0 5 5 0 0. 9.
 -11 -1 0 0 0 0 0 0 -5 5 0 0. 9.
 15 1 1 2 0 0 -2.01176 -3.79471 1.84263 5 1.7768 0. -1
 -15 1 1 2 0 0 2.01176 3.79471 -1.84263 5 1.7768 0. 1
</event>
<event>
 4 80 1 -1 -1 -1
 11 -1 0 0 0 0 0 0 5 5 0 0. 9.
 -11 -1 0 0 0 0 0 0 -4.99985 4.99985 0 0. 9.
 15 1 1 2 0 0 2.19697 2.58604 -3.21353 4.99988 1.7768 0. -1
 -15 1 1 2 0 0 -2.19697 -2.58604 3.21368 4.99997 1.7768 0. 1
</event>
<event>
 4 80 1 -1 -1 -1
 11 -1 0 0 0 0 0 0 4.99973 4.99973 0 0. 9.
 -11 -1 0 0 0 0 0 0 -5 5 0 0. 9.
 15 1 1 2 0 0 3.96716 2.41605 0.51496 4.99985 1.7768 0. -1
 -15 1 1 2 0 0 -3.96716 -2.41605 -0.515225 4.99988 1.7768 0. 1
</event>
<event>
 4 80 1 -1 -1 -1
 11 -1 0 0 0 0 0 0 4.9999 4.9999 0 0. 9.
 -11 -1 0 0 0 0 0 0 -1.7302 1.7302 0 0. 9.
 15 1 1 2 0 0 0.243857 0.574324 4.21954 4.62078 1.7768 0. -1
 -15 1 1 2 0 0 -0.243857 -0.574324 -0.949846 2.10932 1.7768 0. 1
</event>
<event>
 4 80 1 -1 -1 -1
 11 -1 0 0 0 0 0 0 4.59034 4.59034 0 0. 9.
 -11 -1 0 0 0 0 0 0 -5 5 0 0. 9.
 15 1 1 2 0 0 4.34668 -0.138693 0.734706 4.75504 1.7768 0. 1
 -15 1 1 2 0 0 -4.34668 0.138693 -1.14437 4.8353 1.7768 0. -1
</event>
<event>
 4 80 1 -1 -1 -1
 11 -1 0 0 0 0 0 0 5 5 0 0. 9.
 -11 -1 0 0 0 0 0 0 -5 5 0 0. 9.
 15 1 1 2 0 0 -0.508044 -2.98546 3.55966 5 1.7768 0. -1
 -15 1 1 2 0 0 0.508044 2.98546 -3.55966 5 1.7768 0. 1
</event>
<event>
 4 80 1 -1 -1 -1
 11 -1 0 0 0 0 0 0 4.98412 4.98412 0 0. 9.
 -11 -1 0 0 0 0 0 0 -4.99326 4.99326 0 0. 9.
 15 1 1 2 0 0 -2.28805 -4.05028 -0.303459 4.98897 1.7768 0. 1
 -15 1 1 2 0 0 2.28805 4.05028 0.294314 4.98842 1.7768 0. -1
</event>
<event>
 4 80 1 -1 -1 -1
 11 -1 0 0 0 0 0 0 4.99994 4.99994 0 0. 9.
 -11 -1 0 0 0 0 0 0 -5 5 0 0. 9.
 15 1 1 2 0 0 -3.38728 2.78582 -1.6148 4.99998 1.7768 0. 1
 -15 1 1 2 0 0 3.38728 -2.78582 1.61474 4.99996 1.7768 0. -1
</event>
<event>
 4 80 1 -1 -1 -1
 11 -1 0 0 0 0 0 0 5 5 0 0. 9.
 -11 -1 0 0 0 0 0 0 -4.95369 4.95369 0 0. 9.
 15 1 1 2 0 0 3.10352 -0.984877 -3.29484 4.9614 1.7768 0. 1
 -15 1 1 2 0 0 -3.10352 0.984877 3.34116 4.99228 1.7768 0. -1
</event>
<event>
 4 80 1 -1 -1 -1
 11 -1 0 0 0 0 0 0 4.99839 4.99839 0 0. 9.
 -11 -1 0 0 0 0 0 0 -5 5 0 0. 9.
 15 1 1 2 0 0 1.5236 -2.7746 -3.43802 4.99975 1.7768 0. 1
 -15 1 1 2 0 0 -1.5236 2.7746 3.43641 4.99864 1.7768 0. -1
</event>
<event>
 4 80 1 -1 -1 -1
 11 -1 0 0 0 0 0 0 5 5 0 0. 9.
 -11 -1 0 0 0 0 0 0 -1.67852 1.67852 0 0. 9.
 15 1 1 2 0 0 1.18607 1.06906 -0.228093 2.39988 1.7768 0. 1
 -15 1 1 2 0 0 -1.18607 -1.06906 3.54956 4.27864 1.7768 0. -1
</event>
<event>
 4 80 1 -1 -1 -1
 11 -1 0 0 0 0 0 0 3.00549 3.00549 0 0. 9.
 -11 -1 0 0 0 0 0 0 -5 5 0 0. 9.
 15 1 1 2 0 0 0.87263 -2.5426 -3.22228 4.55709 1.7768 0. -1
 -15 1 1 2 0 0 -0.87263 2.5426 1.22777 3.4484 1.7768 0. 1
</event>
<event>
 4 80 1 -1 -1 -1
 11 -1 0 0 0 0 0 0 5 5 0 0. 9.
 -11 -1 0 0 0 0 0 0 -2.0853 2.0853 0 0. 9.
 15 1 1 2 0 0 -1.54947 1.65667 -0.141373 2.88498 1.7768 0. 1
 -15 1 1 2 0 0 1.54947 -1.65667 3.05607 4.20032 1.7768 0. -1
</event>
<event>
 4 80 1 -1 -1 -1
 11 -1 0 0 0 0 0 0 5 5 0 0. 9.
 -11 -1 0 0 0 0 0 0 -4.99998 4.99998 0 0. 9.
 15 1 1 2 0 0 4.06675 -0.877907 2.12909 4.99999 1.7768 0. 1
 -15 1 1 2 0 0 -4.06675 0.877907 -2.12907 4.99999 1.7768 0. -1
</event>
<event>
 4 80 1 -1 -1 -1
 11 -1 0 0 0 0 0 0 5 5 0 0. 9.
 -11 -1 0 0 0 0 0 0 -4.85841 4.85841 0 0. 9.
 15 1 1 2 0 0 -2.47704 -0.05183 3.94365 4.98483 1.7768 0. 1
 -15 1 1 2 0 0 2.47704 0.05183 -3.80206 4.87358 1.7768 0. -1
</event>
<event>
 4 80 1 -1 -1 -1
 11 -1 0 0 0 0 0 0 4.62231 4.62231 0 0. 9.
 -11 -1 0 0 0 0 0 0 -5 5 0 0. 9.
 15 1 1 2 0 0 3.99797 0.88117 -1.97728 4.88135 1.7768 0. -1
 -15 1 1 2 0 0 -3.99797 -0.88117 1.59959 4.74096 1.7768 0. 1
</event>
<event>
 4 80 1 -1 -1 -1
 11 -1 0 0 0 0 0 0 4.99943 4.99943 0 0. 9.
 -11 -1 0 0 0 0 0 0 -5 5 0 0. 9.
 15 1 1 2 0 0 -3.65926 -0.325891 2.88814 4.99955 1.7768 0. 1
 -15 1 1 2 0 0 3.65926 0.325891 -2.88872 4.99988 1.7768 0. -1
</event>
<event>
 4 80 1 -1 -1 -1
 11 -1 0 0 0 0 0 0 5 5 0 0. 9.
 -11 -1 0 0 0 0 0 0 -5 5 0 0. 9.
 15 1 1 2 0 0 1.58313 -0.873984 -4.30954 5 1.7768 0. 1
 -15 1 1 2 0 0 -1.58313 0.873984 4.30954 5 1.7768 0. -1
</event>
<event>
 4 80 1 -1 -1 -1
 11 -1 0 0 0 0 0 0 3.16679 3.16679 0 0. 9.
 -11 -1 0 0 0 0 0 0 -4.55095 4.55095 0 0. 9.
 15 1 1 2 0 0 2.31061 -1.05604 -2.9191 4.25828 1.7768 0. -1
 -15 1 1 2 0 0 -2.31061 1.05604 1.53493 3.45946 1.7768 0. 1
</event>
<event>
 4 80 1 -1 -1 -1
 11 -1 0 0 0 0 0 0 5 5 0 0. 9.
 -11 -1 0 0 0 0 0 0 -5 5 0 0. 9.
 15 1 1 2 0 0 0.461099 -3.25398 -3.32284 5 1.7768 0. -1
 -15 1 1 2 0 0 -0.461099 3.25398 3.32284 5 1.7768 0. 1
</event>
<event>
 4 80 1 -1 -1 -1
 11 -1 0 0 0 0 0 0 4.99105 4.99105 0 0. 9.
 -11 -1 0 0 0 0 0 0 -5 5 0 0. 9.
 15 1 1 2 0 0 1.08349 -0.156707 -4.54309 4.99959 1.7768 0. -1
 -15 1 1 2 0 0 -1.08349 0.156707 4.53414 4.99146 1.7768 0. 1
</event>
<event>
 4 80 1 -1 -1 -1
 11 -1 0 0 0 0 0 0 5 5 0 0. 9.
 -11 -1 0 0 0 0 0 0 -5 5 0 0. 9.
 15 1 1 2 0 0 -2.21212 4.09744 0.399681 5 1.7768 0. -1
 -15 1 1 2 0 0 2.21212 -4.09744 -0.399681 5 1.7768 0. 1
</event>
<event>
 4 80 1 -1 -1 -1
 11 -1 0 0 0 0 0 0 5 5 0 0. 9.
 -11 -1 0 0 0 0 0 0 -5 5 0 0. 9.
 15 1 1 2 0 0 0.357403 0.555136 -4.6267 5 1.7768 0. -1
 -15 1 1 2 0 0 -0.357403 -0.555136 4.6267 5 1.7768 0. 1
</event>
<event>
 4 80 1 -1 -1 -1
 11 -1 0 0 0 0 0 0 2.12861 2.12861 0 0. 9.
 -11 -1 0 0 0 0 0 0 -5 5 0 0. 9.
 15 1 1 2 0 0 -2.61255 0.126718 -2.31235 3.91742 1.7768 0. -1
 -15 1 1 2 0 0 2.61255 -0.126718 -0.559041 3.21119 1.7768 0. 1
</event>
<event>
 4 80 1 -1 -1 -1
 11 -1 0 0 0 0 0 0 5 5 0 0. 9.
 -11 -1 0 0 0 0 0 0 -0.790761 0.790761 0 0. 9.
 15 1 1 2 0 0 -0.63933 0.371629 1.37769 2.36698 1.7768 0. 1
 -15 1 1 2 0 0 0.63933 -0.371629 2.83155 3.42378 1.7768 0. -1
</event>
<event>
 4 80 1 -1 -1 -1
 11 -1 0 0 0 0 0 0 5 5 0 0. 9.
 -11 -1 0 0 0 0 0 0 -4.99999 4.99999 0 0. 9.
 15 1 1 2 0 0 -4.64183 0.459789 -0.290199 4.99999 1.7768 0. 1
 -15 1 1 2 0 0 4.64183 -0.459789 0.290214 4.99999 1.7768 0. -1
</event>
<event>
 4 80 1 -1 -1 -1
 11 -1 0 0 0 0 0 0 4.99744 4.99744 0 0. 9.
 -11 -1 0 0 0 0 0 0 -5 5 0 0. 9.
 15 1 1 2 0 0 2.39278 2.75518 -2.91899 4.99947 1.7768 0. 1
 -15 1 1 2 0 0 -2.39278 -2.75518 2.91643 4.99797 1.7768 0. -1
</event>
<event>
 4 80 1 -1 -1 -1
 11 -1 0 0 0 0 0 0 4.86443 4.86443 0 0. 9.
 -11 -1 0 0 0 0 0 0 -4.65162 4.65162 0 0. 9.
 15 1 1 2 0 0 2.9084 3.15663 -0.916906 4.73514 1.7768 0. -1
 -15 1 1 2 0 0 -2.9084 -3.15663 1.12971 4.78091 1.7768 0. 1
</event>
<event>
 4 80 1 -1 -1 -1
 11 -1 0 0 0 0 0 0 5 5 0 0. 9.
 -11 -1 0 0 0 0 0 0 -4.99998 4.99998 0 0. 9.
 15 1 1 2 0 0 -1.15664 4.47608 -0.684866 4.99999 1.7768 0. 1
 -15 1 1 2 0 0 1.15664 -4.47608 0.684884 4.99999 1.7768 0. -1
</event>
<event>
 4 80 1 -1 -1 -1
 11 -1 0 0 0 0 0 0 4.99915 4.99915 0 0. 9.
 -11 -1 0 0 0 0 0 0 -3.70803 3.70803 0 0. 9.
 15 1 1 2 0 0 -0.73271 -1.47866 -2.95173 3.82018 1.7768 0. 1
 -15 1 1 2 0 0 0.73271 1.47866 4.24285 4.88701 1.7768 0. -1
</event>
<event>
 4 80 1 -1 -1 -1
 11 -1 0 0 0 0 0 0 4.9999 4.9999 0 0. 9.
 -11 -1 0 0 0 0 0 0 -5 5 0 0. 9.
 15 1 1 2 0 0 3.6918 -2.75418 -0.79183 4.99996 1.7768 0. -1
 -15 1 1 2 0 0 -3.6918 2.75418 0.791731 4.99994 1.7768 0. 1
</event>
<event>
 4 80 1 -1 -1 -1
 11 -1 0 0 0 0 0 0 4.99912 4.99912 0 0. 9.
 -11 -1 0 0 0 0 0 0 -5 5 0 0. 9.
 15 1 1 2 0 0 -0.186076 1.29693 4.48522 4.99916 1.7768 0. -1
 -15 1 1 2 0 0 0.186076 -1.29693 -4.48611 4.99995 1.7768 0. 1
</event>
<event>
 4 80 1 -1 -1 -1
 11 -1 0 0 0 0 0 0 5 5 0 0. 9.
 -11 -1 0 0 0 0 0 0 -5 5 0 0. 9.
 15 1 1 2 0 0 -3.51712 2.64231 -1.57808 5 1.7768 0. 1
 -15 1 1 2 0 0 3.51712 -2.64231 1.57808 5 1.7768 0. -1
</event>
<event>
 4 80 1 -1 -1 -1
 11 -1 0 0 0 0 0 0 5 5 0 0. 9.
 -11 -1 0 0 0 0 0 0 -5 5 0 0. 9.
 15 1 1 2 0 0 -2.78735 -0.665904 3.69182 5 1.7768 0. -1
 -15 1 1 2 0 0 2.78735 0.665904 -3.69182 5 1.7768 0. 1
</event>
<event>
 4 80 1 -1 -1 -1
 11 -1 0 0 0 0 0 0 5 5 0 0. 9.
 -11 -1 0 0 0 0 0 0 -4.99765 4.99765 0 0. 9.
 15 1 1 2 0 0 0.160553 0.379048 4.65532 4.99992 1.7768 0. -1
 -15 1 1 2 0 0 -0.160553 -0.379048 -4.65297 4.99773 1.7768 0. 1
</event>
<event>
 4 80 1 -1 -1 -1
 11 -1 0 0 0 0 0 0 4.99998 4.99998 0 0. 9.
 -11 -1 0 0 0 0 0 0 -5 5 0 0. 9.
 15 1 1 2 0 0 -0.222296 3.71122 2.83188 4.99998 1.7768 0. 1
 -15 1 1 2 0 0 0.222296 -3.71122 -2.8319 5 1.7768 0. -1
</event>
<event>
 4 80 1 -1 -1 -1
 11 -1 0 0 0 0 0 0 4.59708 4.59708 0 0. 9.
 -11 -1 0 0 0 0 0 0 -2.70983 2.70983 0 0. 9.
 15 1 1 2 0 0 1.38197 -0.112808 -1.86783 2.9273 1.7768 0. 1
 -15 1 1 2 0 0 -1.38197 0.112808 3.75508 4.3796 1.7768 0. -1
</event>
<event>
 4 80 1 -1 -1 -1
 11 -1 0 0 0 0 0 0 4.78652 4.78652 0 0. 9.
 -11 -1 0 0 0 0 0 0 -4.99997 4.99997 0 0. 9.
 15 1 1 2 0 0 2.70775 0.403605 -3.75176 4.97275 1.7768 0. 1
 -15 1 1 2 0 0 -2.70775 -0.403605 3.53831 4.81374 1.7768 0. -1
</event>
<event>
 4 80 1 -1 -1 -1
 11 -1 0 0 0 0 0 0 4.94357 4.94357 0 0. 9.
 -11 -1 0 0 0 0 0 0 -5 5 0 0. 9.
 15 1 1 2 0 0 2.55747 -3.82425 -0.656395 4.97535 1.7768 0. 1
 -15 1 1 2 0 0 -2.55747 3.82425 0.599967 4.96822 1.7768 0. -1
</event>
<event>
 4 80 1 -1 -1 -1
 11 -1 0 0 0 0 0 0 5 5 0 0. 9.
 -11 -1 0 0 0 0 0 0 -4.99993 4.99993 0 0. 9.
 15 1 1 2 0 0 3.32859 2.11104 -2.51113 4.99995 1.7768 0. -1
 -15 1 1 2 0 0 -3.32859 -2.11104 2.51119 4.99998 1.7768 0. 1
</event>
<event>
 4 80 1 -1 -1 -1
 11 -1 0 0 0 0 0 0 5 5 0 0. 9.
 -11 -1 0 0 0 0 0 0 -5 5 0 0. 9.
 15 1 1 2 0 0 -0.693178 -1.67941 -4.30597 5 1.7768 0. 1
 -15 1 1 2 0 0 0.693178 1.67941 4.30597 5 1.7768 0. -1
</event>
<event>
 4 80 1 -1 -1 -1
 11 -1 0 0 0 0 0 0 5 5 0 0. 9.
 -11 -1 0 0 0 0 0 0 -4.99973 4.99973 0 0. 9.
 15 1 1 2 0 0 -1.00288 1.15219 4.41688 4.99998 1.7768 0. 1
 -15 1 1 2 0 0 1.00288 -1.15219 -4.41661 4.99974 1.7768 0. -1
</event>
<event>
 4 80 1 -1 -1 -1
 11 -1 0 0 0 0 0 0 4.9999 4.9999 0 0. 9.
 -11 -1 0 0 0 0 0 0 -4.8144 4.8144 0 0. 9.
 15 1 1 2 0 0 1.06435 1.47428 4.28962 4.98647 1.7768 0. 1
 -15 1 1 2 0 0 -1.06435 -1.47428 -4.10413 4.82783 1.7768 0. -1
</event>
<event>
 4 80 1 -1 -1 -1
 11 -1 0 0 0 0 0 0 5 5 0 0. 9.
 -11 -1 0 0 0 0 0 0 -5 5 0 0. 9.
 15 1 1 2 0 0 1.50853 -0.95324 -4.31948 5 1.7768 0. -1
 -15 1 1 2 0 0 -1.50853 0.95324 4.31948 5 1.7768 0. 1
</event>
<event>
 4 80 1 -1 -1 -1
 11 -1 0 0 0 0 0 0 4.61645 4.61645 0 0. 9.
 -11 -1 0 0 0 0 0 0 -4.99961 4.99961 0 0. 9.
 15 1 1 2 0 0 -4.40387 -0.523597 -0.696447 4.82815 1.7768 0. 1
 -15 1 1 2 0 0 4.40387 0.523597 0.313291 4.78791 1.7768 0. -1
</event>
<event>
 4 80 1 -1 -1 -1
 11 -1 0 0 0 0 0 0 5 5 0 0. 9.
 -11 -1 0 0 0 0 0 0 -5 5 0 0. 9.
 15 1 1 2 0 0 -0.823965 2.31914 3.97303 5 1.7768 0. 1
 -15 1 1 2 0 0 0.823965 -2.31914 -3.97303 5 1.7768 0. -1
</event>
<event>
 4 80 1 -1 -1 -1
 11 -1 0 0 0 0 0 0 4.98485 4.98485 0 0. 9.
 -11 -1 0 0 0 0 0 0 -5 5 0 0. 9.
 15 1 1 2 0 0 -4.37045 -1.6296 -0.108204 4.99258 1.7768 0. 1
 -15 1 1 2 0 0 4.37045 1.6296 0.0930556 4.99227 1.7768 0. -1
</event>
<event>
 4 80 1 -1 -1 -1
 11 -1 0 0 0 0 0 0 5 5 0 0. 9.
 -11 -1 0 0 0 0 0 0 -5 5 0 0. 9.
 15 1 1 2 0 0 2.67097 1.49491 3.53178 5 1.7768 0. -1
 -15 1 1 2 0 0 -2.67097 -1.49491 -3.53178 5 1.7768 0. 1
</event>
<event>
 4 80 1 -1 -1 -1
 11 -1 0 0 0 0 0 0 5 5 0 0. 9.
 -11 -1 0 0 0 0 0 0 -5 5 0 0. 9.
 15 1 1 2 0 0 1.90892 -0.445018 -4.24267 5 1.7768 0. 1
 -15 1 1 2 0 0 -1.90892 0.445018 4.24267 5 1.7768 0. -1
</event>
<event>
 4 80 1 -1 -1 -1
 11 -1 0 0 0 0 0 0 4.99178 4.99178 0 0. 9.
 -11 -1 0 0 0 0 0 0 -5 5 0 0. 9.
 15 1 1 2 0 0 4.50618 0.211821 1.20032 4.9949 1.7768 0. -1
 -15 1 1 2 0 0 -4.50618 -0.211821 -1.20854 4.99688 1.7768 0. 1
</event>
<event>
 4 80 1 -1 -1 -1
 11 -1 0 0 0 0 0 0 5 5 0 0. 9.
 -11 -1 0 0 0 0 0 0 -5 5 0 0. 9.
 15 1 1 2 0 0 4.28758 -0.815097 -1.67169 5 1.7768 0. -1
 -15 1 1 2 0 0 -4.28758 0.815097 1.67169 5 1.7768 0. 1
</event>
<event>
 4 80 1 -1 -1 -1
 11 -1 0 0 0 0 0 0 5 5 0 0. 9.
 -11 -1 0 0 0 0 0 0 -4.99999 4.99999 0 0. 9.
 15 1 1 2 0 0 0.212085 -4.47438 -1.33309 4.99999 1.7768 0. -1
 -15 1 1 2 0 0 -0.212085 4.47438 1.33311 4.99999 1.7768 0. 1
</event>
<event>
 4 80 1 -1 -1 -1
 11 -1 0 0 0 0 0 0 4.41752 4.41752 0 0. 9.
 -11 -1 0 0 0 0 0 0 -4.99996 4.99996 0 0. 9.
 15 1 1 2 0 0 0.792344 0.548716 -4.54209 4.97164 1.7768 0. 1
 -15 1 1 2 0 0 -0.792344 -0.548716 3.95965 4.44584 1.7768 0. -1
</event>
<event>
 4 80 1 -1 -1 -1
 11 -1 0 0 0 0 0 0 5 5 0 0. 9.
 -11 -1 0 0 0 0 0 0 -4.99586 4.99586 0 0. 9.
 15 1 1 2 0 0 0.887526 1.41943 -4.35902 4.99612 1.7768 0. -1
 -15 1 1 2 0 0 -0.887526 -1.41943 4.36316 4.99974 1.7768 0. 1
</event>
<event>
 4 80 1 -1 -1 -1
 11 -1 0 0 0 0 0 0 5 5 0 0. 9.
 -11 -1 0 0 0 0 0 0 -4.99994 4.99994 0 0. 9.
 15 1 1 2 0 0 2.90547 0.570874 3.61588 4.99999 1.7768 0. -1
 -15 1 1 2 0 0 -2.90547 -0.570874 -3.61582 4.99995 1.7768 0. 1
</event>
<event>
 4 80 1 -1 -1 -1
 11 -1 0 0 0 0 0 0 4.98133 4.98133 0 0. 9.
 -11 -1 0 0 0 0 0 0 -4.74616 4.74616 0 0. 9.
 15 1 1 2 0 0 -4.42505 0.925486 -0.098944 4.85851 1.7768 0. -1
 -15 1 1 2 0 0 4.42505 -0.925486 0.334114 4.86898 1.7768 0. 1
</event>
<event>
 4 80 1 -1 -1 -1
 11 -1 0 0 0 0 0 0 5 5 0 0. 9.
 -11 -1 0 0 0 0 0 0 -5 5 0 0. 9.
 15 1 1 2 0 0 1.46025 -2.46241 3.69411 5 1.7768 0. -1
 -15 1 1 2 0 0 -1.46025 2.46241 -3.69411 5 1.7768 0. 1
</event>
<event>
 4 80 1 -1 -1 -1
 11 -1 0 0 0 0 0 0 4.98085 4.98085 0 0. 9.
 -11 -1 0 0 0 0 0 0 -5 5 0 0. 9.
 15 1 1 2 0 0 3.62716 -2.70328 1.12292 4.98825 1.7768 0. -1
 -15 1 1 2 0 0 -3.62716 2.70328 -1.14206 4.9926 1.7768 0. 1
</event>
<event>
 4 80 1 -1 -1 -1
 11 -1 0 0 0 0 0 0 5 5 0 0. 9.
 -11 -1 0 0 0 0 0 0 -5 5 0 0. 9.
 15 1 1 2 0 0 -3.30558 -1.72968 -2.81489 5 1.7768 0. 1
 -15 1 1 2 0 0 3.30558 1.72968 2.81489 5 1.7768 0. -1
</event>
<event>
 4 80 1 -1 -1 -1
 11 -1 0 0 0 0 0 0 4.48222 4.48222 0 0. 9.
 -11 -1 0 0 0 0 0 0 -4.99985 4.99985 0 0. 9.
 15 1 1 2 0 0 -2.20653 2.96898 2.1046 4.61201 1.7768 0. 1
 -15 1 1 2 0 0 2.20653 -2.96898 -2.62223 4.87006 1.7768 0. -1
</event>
<event>
 4 80 1 -1 -1 -1
 11 -1 0 0 0 0 0 0 1.68305 1.68305 0 0. 9.
 -11 -1 0 0 0 0 0 0 -4.98983 4.98983 0 0. 9.
 15 1 1 2 0 0 0.208193 -0.185799 -4.26931 4.63277 1.7768 0. -1
 -15 1 1 2 0 0 -0.208193 0.185799 0.962522 2.04011 1.7768 0. 1
</event>
<event>
 4 80 1 -1 -1 -1
 11 -1 0 0 0 0 0 0 4.98956 4.98956 0 0. 9.
 -11 -1 0 0 0 0 0 0 -5 5 0 0. 9.
 15 1 1 2 0 0 -4.10601 1.17374 1.87974 4.99281 1.7768 0. 1
 -15 1 1 2 0 0 4.10601 -1.17374 -1.89018 4.99675 1.7768 0. -1
</event>
<event>
 4 80 1 -1 -1 -1
 11 -1 0 0 0 0 0 0 5 5 0 0. 9.
 -11 -1 0 0 0 0 0 0 -5 5 0 0. 9.
 15 1 1 2 0 0 -0.218488 -4.59588 -0.819991 5 1.7768 0. -1
 -15 1 1 2 0 0 0.218488 4.59588 0.819991 5 1.7768 0. 1
</event>
<event>
 4 80 1 -1 -1 -1
 11 -1 0 0 0 0 0 0 5 5 0 0. 9.
 -11 -1 0 0 0 0 0 0 -1.11287 1.11287 0 0. 9.
 15 1 1 2 0 0 0.760196 -1.01117 3.10701 3.79627 1.7768 0. -1
 -15 1 1 2 0 0 -0.760196 1.01117 0.780111 2.31661 1.7768 0. 1
</event>
<event>
 4 80 1 -1 -1 -1
 11 -1 0 0 0 0 0 0 5 5 0 0. 9.
 -11 -1 0 0 0 0 0 0 -4.99399 4.99399 0 0. 9.
 15 1 1 2 0 0 1.83639 1.99685 -3.79864 4.99471 1.7768 0. -1
 -15 1 1 2 0 0 -1.83639 -1.99685 3.80465 4.99928 1.7768 0. 1
</event>
<event>
 4 80 1 -1 -1 -1
 11 -1 0 0 0 0 0 0 5 5 0 0. 9.
 -11 -1 0 0 0 0 0 0 -4.99961 4.99961 0 0. 9.
 15 1 1 2 0 0 -2.7179 -3.62617 -1.14183 4.99976 1.7768 0. -1
 -15 1 1 2 0 0 2.7179 3.62617 1.14221 4.99985 1.7768 0. 1
</event>
<event>
 4 80 1 -1 -1 -1
 11 -1 0 0 0 0 0 0 4.99753 4.99753 0 0. 9.
 -11 -1 0 0 0 0 0 0 -5 5 0 0. 9.
 15 1 1 2 0 0 -0.756434 4.58673 -0.469836 4.99888 1.7768 0. 1
 -15 1 1 2 0 0 0.756434 -4.58673 0.467363 4.99865 1.7768 0. -1
</event>
<event>
 4 80 1 -1 -1 -1
 11 -1 0 0 0 0 0 0 5 5 0 0. 9.
 -11 -1 0 0 0 0 0 0 -4.99991 4.99991 0 0. 9.
 15 1 1 2 0 0 -2.91959 3.12602 1.88307 4.99997 1.7768 0. -1
 -15 1 1 2 0 0 2.91959 -3.12602 -1.88299 4.99994 1.7768 0. 1
</event>
<event>
 4 80 1 -1 -1 -1
 11 -1 0 0 0 0 0 0 5 5 0 0. 9.
 -11 -1 0 0 0 0 0 0 -5 5 0 0. 9.
 15 1 1 2 0 0 -1.21653 0.708619 4.45648 5 1.7768 0. 1
 -15 1 1 2 0 0 1.21653 -0.708619 -4.45648 5 1.7768 0. -1
</event>
<event>
 4 80 1 -1 -1 -1
 11 -1 0 0 0 0 0 0 4.99879 4.99879 0 0. 9.
 -11 -1 0 0 0 0 0 0 -5 5 0 0. 9.
 15 1 1 2 0 0 2.40067 3.29701 -2.28154 4.99967 1.7768 0. 1
 -15 1 1 2 0 0 -2.40067 -3.29701 2.28034 4.99912 1.7768 0. -1
</event>
<event>
 4 80 1 -1 -1 -1
 11 -1 0 0 0 0 0 0 5 5 0 0. 9.
 -11 -1 0 0 0 0 0 0 -5 5 0 0. 9.
 15 1 1 2 0 0 2.72349 -3.79439 -0.16577 5 1.7768 0. -1
 -15 1 1 2 0 0 -2.72349 3.79439 0.16577 5 1.7768 0. 1
</event>
<event>
 4 80 1 -1 -1 -1
 11 -1 0 0 0 0 0 0 5 5 0 0. 9.
 -11 -1 0 0 0 0 0 0 -5 5 0 0. 9.
 15 1 1 2 0 0 -1.34799 -4.06976 -1.86071 5 1.7768 0. 1
 -15 1 1 2 0 0 1.34799 4.06976 1.86071 5 1.7768 0. -1
</event>
<event>
 4 80 1 -1 -1 -1
 11 -1 0 0 0 0 0 0 4.99895 4.99895 0 0. 9.
 -11 -1 0 0 0 0 0 0 -5 5 0 0. 9.
 15 1 1 2 0 0 -2.95209 -3.12288 -1.83624 4.99967 1.7768 0. 1
 -15 1 1 2 0 0 2.95209 3.12288 1.83519 4.99928 1.7768 0. -1
</event>
<event>
 4 80 1 -1 -1 -1
 11 -1 0 0 0 0 0 0 4.92362 4.92362 0 0. 9.
 -11 -1 0 0 0 0 0 0 -4.86603 4.86603 0 0. 9.
 15 1 1 2 0 0 2.68824 -2.69577 -2.48261 4.88005 1.7768 0. 1
 -15 1 1 2 0 0 -2.68824 2.69577 2.5402 4.9096 1.7768 0. -1
</event>
<event>
 4 80 1 -1 -1 -1
 11 -1 0 0 0 0 0 0 5 5 0 0. 9.
 -11 -1 0 0 0 0 0 0 -4.97565 4.97565 0 0. 9.
 15 1 1 2 0 0 2.12875 -1.77702 3.758 4.99697 1.7768 0. 1
 -15 1 1 2 0 0 -2.12875 1.77702 -3.73365 4.97868 1.7768 0. -1
</event>
<event>
 4 80 1 -1 -1 -1
 11 -1 0 0 0 0 0 0 5 5 0 0. 9.
 -11 -1 0 0 0 0 0 0 -4.94717 4.94717 0 0. 9.
 15 1 1 2 0 0 0.799985 4.46911 -0.956017 4.96837 1.7768 0. -1
 -15 1 1 2 0 0 -0.799985 -4.46911 1.00885 4.9788 1.7768 0. 1
</event>
<event>
 4 80 1 -1 -1 -1
 11 -1 0 0 0 0 0 0 4.99905 4.99905 0 0. 9.
 -11 -1 0 0 0 0 0 0 -5 5 0 0. 9.
 15 1 1 2 0 0 1.41275 -3.90134 -2.15018 4.99973 1.7768 0. -1
 -15 1 1 2 0 0 -1.41275 3.90134 2.14923 4.99932 1.7768 0. 1
</event>
<event>
 4 80 1 -1 -1 -1
 11 -1 0 0 0 0 0 0 4.47859 4.47859 0 0. 9.
 -11 -1 0 0 0 0 0 0 -2.10685 2.10685 0 0. 9.
 15 1 1 2 0 0 2.25086 -0.881607 1.89234 3.54716 1.7768 0. 1
 -15 1 1 2 0 0 -2.25086 0.881607 0.479398 3.03828 1.7768 0. -1
</event>
<event>
 4 80 1 -1 -1 -1
 11 -1 0 0 0 0 0 0 5 5 0 0. 9.
 -11 -1 0 0 0 0 0 0 -5 5 0 0. 9.
 15 1 1 2 0 0 2.28788 -0.283853 -4.06537 5 1.7768 0. 1
 -15 1 1 2 0 0 -2.28788 0.283853 4.06538 5 1.7768 0. -1
</event>
<event>
 4 80 1 -1 -1 -1
 11 -1 0 0 0 0 0 0 4.98922 4.98922 0 0. 9.
 -11 -1 0 0 0 0 0 0 -4.99969 4.99969 0 0. 9.
 15 1 1 2 0 0 1.81297 -3.71802 -2.1677 4.99672 1.7768 0. -1
 -15 1 1 2 0 0 -1.81297 3.71802 2.15723 4.99219 1.7768 0. 1
</event>
<event>
 4 80 1 -1 -1 -1
 11 -1 0 0 0 0 0 0 4.99999 4.99999 0 0. 9.
 -11 -1 0 0 0 0 0 0 -4.99869 4.99869 0 0. 9.
 15 1 1 2 0 0 -0.34711 -2.27171 4.06938 4.99987 1.7768 0. 1
 -15 1 1 2 0 0 0.34711 2.27171 -4.06807 4.99881 1.7768 0. -1
</event>
<event>
 4 80 1 -1 -1 -1
 11 -1 0 0 0 0 0 0 5 5 0 0. 9.
 -11 -1 0 0 0 0 0 0 -4.96721 4.96721 0 0. 9.
 15 1 1 2 0 0 -1.07362 1.62927 4.24385 4.99751 1.7768 0. -1
 -15 1 1 2 0 0 1.07362 -1.62927 -4.21106 4.9697 1.7768 0. 1
</event>
<event>
 4 80 1 -1 -1 -1
 11 -1 0 0 0 0 0 0 5 5 0 0. 9.
 -11 -1 0 0 0 0 0 0 -5 5 0 0. 9.
 15 1 1 2 0 0 -3.66269 -2.38364 1.65687 5 1.7768 0. 1
 -15 1 1 2 0 0 3.66269 2.38364 -1.65687 5 1.7768 0. -1
</event>
<event>
 4 80 1 -1 -1 -1
 11 -1 0 0 0 0 0 0 4.97077 4.97077 0 0. 9.
 -11 -1 0 0 0 0 0 0 -4.99999 4.99999 0 0. 9.
 15 1 1 2 0 0 -1.70491 -3.41827 -2.68009 4.99319 1.7768 0. 1
 -15 1 1 2 0 0 1.70491 3.41827 2.65088 4.97757 1.7768 0. -1
</event>
<event>
 4 80 1 -1 -1 -1
 11 -1 0 0 0 0 0 0 5 5 0 0. 9.
 -11 -1 0 0 0 0 0 0 -1.41409 1.41409 0 0. 9.
 15 1 1 2 0 0 -0.402808 -0.248543 4.10938 4.50208 1.7768 0. 1
 -15 1 1 2 0 0 0.402808 0.248543 -0.523474 1.91201 1.7768 0. -1
</event>
<event>
 4 80 1 -1 -1 -1
 11 -1 0 0 0 0 0 0 5 5 0 0. 9.
 -11 -1 0 0 0 0 0 0 -4.99859 4.99859 0 0. 9.
 15 1 1 2 0 0 2.66405 1.02321 3.70085 4.99982 1.7768 0. 1
 -15 1 1 2 0 0 -2.66405 -1.02321 -3.69944 4.99877 1.7768 0. -1
</event>
<event>
 4 80 1 -1 -1 -1
 11 -1 0 0 0 0 0 0 4.93952 4.93952 0 0. 9.
 -11 -1 0 0 0 0 0 0 -5 5 0 0. 9.
 15 1 1 2 0 0 -1.12295 4.1358 1.75136 4.95892 1.7768 0. 1
 -15 1 1 2 0 0 1.12295 -4.1358 -1.81185 4.9806 1.7768 0. -1
</event>
<event>
 4 80 1 -1 -1 -1
 11 -1 0 0 0 0 0 0 5 5 0 0. 9.
 -11 -1 0 0 0 0 0 0 -5 5 0 0. 9.
 15 1 1 2 0 0 -4.17082 2.10464 0.130543 5 1.7768 0. 1
 -15 1 1 2 0 0 4.17082 -2.10464 -0.130543 5 1.7768 0. -1
</event>
<event>
 4 80 1 -1 -1 -1
 11 -1 0 0 0 0 0 0 5 5 0 0. 9.
 -11 -1 0 0 0 0 0 0 -5 5 0 0. 9.
 15 1 1 2 0 0 4.00022 2.40136 0.271961 5 1.7768 0. -1
 -15 1 1 2 0 0 -4.00022 -2.40136 -0.27196 5 1.7768 0. 1
</event>
<event>
 4 80 1 -1 -1 -1
 11 -1 0 0 0 0 0 0 4.99827 4.99827 0 0. 9.
 -11 -1 0 0 0 0 0 0 -5 5 0 0. 9.
 15 1 1 2 0 0 2.85208 3.70036 -0.0822032 4.99915 1.7768 0. -1
 -15 1 1 2 0 0 -2.85208 -3.70036 0.080472 4.99912 1.7768 0. 1
</event>
<event>
 4 80 1 -1 -1 -1
 11 -1 0 0 0 0 0 0 4.83982 4.83982 0 0. 9.
 -11 -1 0 0 0 0 0 0 -4.99466 4.99466 0 0. 9.
 15 1 1 2 0 0 0.601231 0.300999 -4.61268 4.98865 1.7768 0. -1
 -15 1 1 2 0 0 -0.601231 -0.300999 4.45783 4.84583 1.7768 0. 1
</event>
<event>
 4 80 1 -1 -1 -1
 11 -1 0 0 0 0 0 0 5 5 0 0. 9.
 -11 -1 0 0 0 0 0 0 -5 5 0 0. 9.
 15 1 1 2 0 0 -2.40379 -2.92522 -2.73991 5 1.7768 0. -1
 -15 1 1 2 0 0 2.40379 2.92522 2.73991 5 1.7768 0. 1
</event>
<event>
 4 80 1 -1 -1 -1
 11 -1 0 0 0 0 0 0 5 5 0 0. 9.
 -11 -1 0 0 0 0 0 0 -2.94852 2.94852 0 0. 9.
 15 1 1 2 0 0 3.30853 -0.566898 1.60864 4.12471 1.7768 0. 1
 -15 1 1 2 0 0 -3.30853 0.566898 0.442838 3.82382 1.7768 0. -1
</event>
<event>
 4 80 1 -1 -1 -1
 11 -1 0 0 0 0 0 0 4.63914 4.63914 0 0. 9.
 -11 -1 0 0 0 0 0 0 -5 5 0 0. 9.
 15 1 1 2 0 0 -4.38408 -0.898594 -0.282434 4.82339 1.7768 0. 1
 -15 1 1 2 0 0 4.38408 0.898594 -0.0784229 4.81575 1.7768 0. -1
</event>
<event>
 4 80 1 -1 -1 -1
 11 -1 0 0 0 0 0 0 0.688848 0.688848 0 0. 9.
 -11 -1 0 0 0 0 0 0 -5 5 0 0. 9.
 15 1 1 2 0 0 0.101995 0.395212 -1.62483 2.44221 1.7768 0. 1
 -15 1 1 2 0 0 -0.101995 -0.395212 -2.68632 3.24663 1.7768 0. -1
</event>
<event>
 4 80 1 -1 -1 -1
 11 -1 0 0 0 0 0 0 5 5 0 0. 9.
 -11 -1 0 0 0 0 0 0 -5 5 0 0. 9.
 15 1 1 2 0 0 -0.439265 -0.387474 -4.63672 5 1.7768 0. 1
 -15 1 1 2 0 0 0.439265 0.387474 4.63672 5 1.7768 0. -1
</event>
<event>
 4 80 1 -1 -1 -1
 11 -1 0 0 0 0 0 0 2.71585 2.71585 0 0. 9.
 -11 -1 0 0 0 0 0 0 -4.99998 4.99998 0 0. 9.
 15 1 1 2 0 0 1.51477 -1.63868 1.30014 3.13494 1.7768 0. 1
 -15 1 1 2 0 0 -1.51477 1.63868 -3.58428 4.58089 1.7768 0. -1
</event>
<event>
 4 80 1 -1 -1 -1
 11 -1 0 0 0 0 0 0 5 5 0 0. 9.
 -11 -1 0 0 0 0 0 0 -5 5 0 0. 9.
 15 1 1 2 0 0 -0.576661 -4.13702 -2.09638 5 1.7768 0. -1
 -15 1 1 2 0 0 0.576661 4.13702 2.09638 5 1.7768 0. 1
</event>
<event>
 4 80 1 -1 -1 -1
 11 -1 0 0 0 0 0 0 5 5 0 0. 9.
 -11 -1 0 0 0 0 0 0 -5 5 0 0. 9.
 15 1 1 2 0 0 -2.54711 -1.58301 3.58449 5 1.7768 0. 1
 -15 1 1 2 0 0 2.54711 1.58301 -3.58449 5 1.7768 0. -1
</event>
<event>
 4 80 1 -1 -1 -1
 11 -1 0 0 0 0 0 0 5 5 0 0. 9.
 -11 -1 0 0 0 0 0 0 -2.75665 2.75665 0 0. 9.
 15 1 1 2 0 0 2.90953 1.42731 1.48801 3.98428 1.7768 0. -1
 -15 1 1 2 0 0 -2.90953 -1.42731 0.755339 3.77238 1.7768 0. 1
</event>
<event>
 4 80 1 -1 -1 -1
 11 -1 0 0 0 0 0 0 4.64668 4.64668 0 0. 9.
 -11 -1 0 0 0 0 0 0 -5 5 0 0. 9.
 15 1 1 2 0 0 0.434004 3.06887 -3.41447 4.94193 1.7768 0. 1
 -15 1 1 2 0 0 -0.434004 -3.06887 3.06116 4.70475 1.7768 0. -1
</event>
<event>
 4 80 1 -1 -1 -1
 11 -1 0 0 0 0 0 0 4.99998 4.99998 0 0. 9.
 -11 -1 0 0 0 0 0 0 -5 5 0 0. 9.
 15 1 1 2 0 0 1.84029 -0.435462 4.27385 4.99998 1.7768 0. -1
 -15 1 1 2 0 0 -1.84029 0.435462 -4.27387 5 1.7768 0. 1
</event>
<event>
 4 80 1 -1 -1 -1
 11 -1 0 0 0 0 0 0 5 5 0 0. 9.
 -11 -1 0 0 0 0 0 0 -5 5 0 0. 9.
 15 1 1 2 0 0 2.37807 -0.680006 -3.96543 5 1.7768 0. 1
 -15 1 1 2 0 0 -2.37807 0.680006 3.96543 5 1.7768 0. -1
</event>
<event>
 4 80 1 -1 -1 -1
 11 -1 0 0 0 0 0 0 5 5 0 0. 9.
 -11 -1 0 0 0 0 0 0 -4.90708 4.90708 0 0. 9.
 15 1 1 2 0 0 3.10871 -2.16658 -2.60309 4.92869 1.7768 0. -1
 -15 1 1 2 0 0 -3.10871 2.16658 2.69602 4.97839 1.7768 0. 1
</event>
<event>
 4 80 1 -1 -1 -1
 11 -1 0 0 0 0 0 0 5 5 0 0. 9.
 -11 -1 0 0 0 0 0 0 -5 5 0 0. 9.
 15 1 1 2 0 0 3.03566 2.79296 -2.19691 5 1.7768 0. -1
 -15 1 1 2 0 0 -3.03566 -2.79296 2.19691 5 1.7768 0. 1
</event>
<event>
 4 80 1 -1 -1 -1
 11 -1 0 0 0 0 0 0 4.76502 4.76502 0 0. 9.
 -11 -1 0 0 0 0 0 0 -5 5 0 0. 9.
 15 1 1 2 0 0 4.29004 1.24402 0.728556 4.86215 1.7768 0. -1
 -15 1 1 2 0 0 -4.29004 -1.24402 -0.963536 4.90287 1.7768 0. 1
</event>
<event>
 4 80 1 -1 -1 -1
 11 -1 0 0 0 0 0 0 5 5 0 0. 9.
 -11 -1 0 0 0 0 0 0 -4.99843 4.99843 0 0. 9.
 15 1 1 2 0 0 1.14566 -4.51052 -0.420065 4.99915 1.7768 0. -1
 -15 1 1 2 0 0 -1.14566 4.51052 0.421633 4.99928 1.7768 0. 1
</event>
<event>
 4 80 1 -1 -1 -1
 11 -1 0 0 0 0 0 0 4.99353 4.99353 0 0. 9.
 -11 -1 0 0 0 0 0 0 -4.99999 4.99999 0 0. 9.
 15 1 1 2 0 0 -2.55048 0.739307 -3.84489 4.99924 1.7768 0. 1
 -15 1 1 2 0 0 2.55048 -0.739307 3.83843 4.99427 1.7768 0. -1
</event>
<event>
 4 80 1 -1 -1 -1
 11 -1 0 0 0 0 0 0 4.99097 4.99097 0 0. 9.
 -11 -1 0 0 0 0 0 0 -4.9988 4.9988 0 0. 9.
 15 1 1 2 0 0 1.76009 -2.38904 3.59965 4.99206 1.7768 0. -1
 -15 1 1 2 0 0 -1.76009 2.38904 -3.60749 4.99771 1.7768 0. 1
</event>
<event>
 4 80 1 -1 -1 -1
 11 -1 0 0 0 0 0 0 5 5 0 0. 9.
 -11 -1 0 0 0 0 0 0 -5 5 0 0. 9.
 15 1 1 2 0 0 -2.36386 2.13476 3.42012 5 1.7768 0. 1
 -15 1 1 2 0 0 2.36386 -2.13476 -3.42012 5 1.7768 0. -1
</event>
<event>
 4 80 1 -1 -1 -1
 11 -1 0 0 0 0 0 0 5 5 0 0. 9.
 -11 -1 0 0 0 0 0 0 -5 5 0 0. 9.
 15 1 1 2 0 0 -3.84273 1.93302 -1.82732 5 1.7768 0. 1
 -15 1 1 2 0 0 3.84273 -1.93302 1.82732 5 1.7768 0. -1
</event>
<event>
 4 80 1 -1 -1 -1
 11 -1 0 0 0 0 0 0 3.68848 3.68848 0 0. 9.
 -11 -1 0 0 0 0 0 0 -4.99975 4.99975 0 0. 9.
 15 1 1 2 0 0 0.505114 -3.01226 1.81291 3.97155 1.7768 0. -1
 -15 1 1 2 0 0 -0.505114 3.01226 -3.12418 4.71668 1.7768 0. 1
</event>
<event>
 4 80 1 -1 -1 -1
 11 -1 0 0 0 0 0 0 5 5 0 0. 9.
 -11 -1 0 0 0 0 0 0 -4.94967 4.94967 0 0. 9.
 15 1 1 2 0 0 2.57467 3.53426 1.59704 4.98279 1.7768 0. 1
 -15 1 1 2 0 0 -2.57467 -3.53426 -1.54671 4.96688 1.7768 0. -1
</event>
<event>
 4 80 1 -1 -1 -1
 11 -1 0 0 0 0 0 0 5 5 0 0. 9.
 -11 -1 0 0 0 0 0 0 -4.96995 4.96995 0 0. 9.
 15 1 1 2 0 0 4.16582 0.235666 2.08443 4.99121 1.7768 0. -1
 -15 1 1 2 0 0 -4.16582 -0.235666 -2.05438 4.97874 1.7768 0. 1
</event>
<event>
 4 80 1 -1 -1 -1
 11 -1 0 0 0 0 0 0 5 5 0 0. 9.
 -11 -1 0 0 0 0 0 0 -4.99998 4.99998 0 0. 9.
 15 1 1 2 0 0 2.19989 2.66851 -3.14352 4.99999 1.7768 0. 1
 -15 1 1 2 0 0 -2.19989 -2.66851 3.14353 5 1.7768 0. -1
</event>
<event>
 4 80 1 -1 -1 -1
 11 -1 0 0 0 0 0 0 5 5 0 0. 9.
 -11 -1 0 0 0 0 0 0 -5 5 0 0. 9.
 15 1 1 2 0 0 -1.12985 4.53386 -0.0991437 5 1.7768 0. -1
 -15 1 1 2 0 0 1.12985 -4.53386 0.0991437 5 1.7768 0. 1
</event>
<event>
 4 80 1 -1 -1 -1
 11 -1 0 0 0 0 0 0 5 5 0 0. 9.
 -11 -1 0 0 0 0 0 0 -4.99935 4.99935 0 0. 9.
 15 1 1 2 0 0 0.124033 3.56041 -3.0241 4.99948 1.7768 0. -1
 -15 1 1 2 0 0 -0.124033 -3.56041 3.02475 4.99987 1.7768 0. 1
</event>
<event>
 4 80 1 -1 -1 -1
 11 -1 0 0 0 0 0 0 0.827275 0.827275 0 0. 9.
 -11 -1 0 0 0 0 0 0 -4.92695 4.92695 0 0. 9.
 15 1 1 2 0 0 0.576218 0.557466 -1.30195 2.34427 1.7768 0. 1
 -15 1 1 2 0 0 -0.576218 -0.557466 -2.79773 3.40996 1.7768 0. -1
</event>
<event>
 4 80 1 -1 -1 -1
 11 -1 0 0 0 0 0 0 5 5 0 0. 9.
 -11 -1 0 0 0 0 0 0 -4.87257 4.87257 0 0. 9.
 15 1 1 2 0 0 2.17634 -3.12244 2.65603 4.96974 1.7768 0. 1
 -15 1 1 2 0 0 -2.17634 3.12244 -2.5286 4.90282 1.7768 0. -1
</event>
<event>
 4 80 1 -1 -1 -1
 11 -1 0 0 0 0 0 0 5 5 0 0. 9.
 -11 -1 0 0 0 0 0 0 -5 5 0 0. 9.
 15 1 1 2 0 0 -2.82206 2.8224 2.43152 5 1.7768 0. -1
 -15 1 1 2 0 0 2.82206 -2.8224 -2.43152 5 1.7768 0. 1
</event>
<event>
 4 80 1 -1 -1 -1
 11 -1 0 0 0 0 0 0 5 5 0 0. 9.
 -11 -1 0 0 0 0 0 0 -4.99998 4.99998 0 0. 9.
 15 1 1 2 0 0 -1.99773 0.727645 4.16195 5 1.7768 0. 1
 -15 1 1 2 0 0 1.99773 -0.727645 -4.16193 4.99998 1.7768 0. -1
</event>
<event>
 4 80 1 -1 -1 -1
 11 -1 0 0 0 0 0 0 4.99999 4.99999 0 0. 9.
 -11 -1 0 0 0 0 0 0 -5 5 0 0. 9.
 15 1 1 2 0 0 -1.64909 -0.868174 4.2859 4.99999 1.7768 0. -1
 -15 1 1 2 0 0 1.64909 0.868174 -4.28591 5 1.7768 0. 1
</event>
<event>
 4 80 1 -1 -1 -1
 11 -1 0 0 0 0 0 0 5 5 0 0. 9.
 -11 -1 0 0 0 0 0 0 -2.41057 2.41057 0 0. 9.
 15 1 1 2 0 0 2.55921 -0.731246 -0.141492 3.20344 1.7768 0. -1
 -15 1 1 2 0 0 -2.55921 0.731246 2.73092 4.20713 1.7768 0. 1
</event>
<event>
 4 80 1 -1 -1 -1
 11 -1 0 0 0 0 0 0 4.9987 4.9987 0 0. 9.
 -11 -1 0 0 0 0 0 0 -4.99999 4.99999 0 0. 9.
 15 1 1 2 0 0 -0.990944 1.5762 -4.28659 4.9999 1.7768 0. 1
 -15 1 1 2 0 0 0.990944 -1.5762 4.2853 4.99879 1.7768 0. -1
</event>
<event>
 4 80 1 -1 -1 -1
 11 -1 0 0 0 0 0 0 4.99558 4.99558 0 0. 9.
 -11 -1 0 0 0 0 0 0 -2.16107 2.16107 0 0. 9.
 15 1 1 2 0 0 -0.961463 -1.04586 3.999 4.60087 1.7768 0. -1
 -15 1 1 2 0 0 0.961463 1.04586 -1.1645 2.55578 1.7768 0. 1
</event>
<event>
 4 80 1 -1 -1 -1
 11 -1 0 0 0 0 0 0 4.97032 4.97032 0 0. 9.
 -11 -1 0 0 0 0 0 0 -4.35711 4.35711 0 0. 9.
 15 1 1 2 0 0 -2.54463 -0.543889 -3.12538 4.43809 1.7768 0. -1
 -15 1 1 2 0 0 2.54463 0.543889 3.73858 4.88934 1.7768 0. 1
</event>
<event>
 4 80 1 -1 -1 -1
 11 -1 0 0 0 0 0 0 5 5 0 0. 9.
 -11 -1 0 0 0 0 0 0 -5 5 0 0. 9.
 15 1 1 2 0 0 -3.62958 -0.155646 2.9401 5 1.7768 0. -1
 -15 1 1 2 0 0 3.62958 0.155646 -2.9401 5 1.7768 0. 1
</event>
<event>
 4 80 1 -1 -1 -1
 11 -1 0 0 0 0 0 0 5 5 0 0. 9.
 -11 -1 0 0 0 0 0 0 -4.815 4.815 0 0. 9.
 15 1 1 2 0 0 -1.29153 3.95187 1.99861 4.94343 1.7768 0. 1
 -15 1 1 2 0 0 1.29153 -3.95187 -1.81361 4.87157 1.7768 0. -1
</event>
<event>
 4 80 1 -1 -1 -1
 11 -1 0 0 0 0 0 0 4.99924 4.99924 0 0. 9.
 -11 -1 0 0 0 0 0 0 -5 5 0 0. 9.
 15 1 1 2 0 0 0.47908 2.99099 -3.55888 4.99989 1.7768 0. -1
 -15 1 1 2 0 0 -0.47908 -2.99099 3.55811 4.99935 1.7768 0. 1
</event>
<event>
 4 80 1 -1 -1 -1
 11 -1 0 0 0 0 0 0 5 5 0 0. 9.
 -11 -1 0 0 0 0 0 0 -4.94128 4.94128 0 0. 9.
 15 1 1 2 0 0 0.398847 0.621344 -4.55368 4.94357 1.7768 0. -1
 -15 1 1 2 0 0 -0.398847 -0.621344 4.6124 4.99771 1.7768 0. 1
</event>
<event>
 4 80 1 -1 -1 -1
 11 -1 0 0 0 0 0 0 5 5 0 0. 9.
 -11 -1 0 0 0 0 0 0 -4.99958 4.99958 0 0. 9.
 15 1 1 2 0 0 -0.941201 -2.74421 -3.66362 4.99964 1.7768 0. 1
 -15 1 1 2 0 0 0.941201 2.74421 3.66404 4.99994 1.7768 0. -1
</event>
<event>
 4 80 1 -1 -1 -1
 11 -1 0 0 0 0 0 0 5 5 0 0. 9.
 -11 -1 0 0 0 0 0 0 -5 5 0 0. 9.
 15 1 1 2 0 0 1.50478 -4.42461 -0.0271922 5 1.7768 0. 1
 -15 1 1 2 0 0 -1.50478 4.42461 0.0271922 5 1.7768 0. -1
</event>
<event>
 4 80 1 -1 -1 -1
 11 -1 0 0 0 0 0 0 5 5 0 0. 9.
 -11 -1 0 0 0 0 0 0 -4.96735 4.96735 0 0. 9.
 15 1 1 2 0 0 1.64722 -1.60164 -4.03344 4.97041 1.7768 0. -1
 -15 1 1 2 0 0 -1.64722 1.60164 4.06609 4.99694 1.7768 0. 1
</event>
<event>
 4 80 1 -1 -1 -1
 11 -1 0 0 0 0 0 0 4.98761 4.98761 0 0. 9.
 -11 -1 0 0 0 0 0 0 -5 5 0 0. 9.
 15 1 1 2 0 0 -1.65519 -0.724003 4.29689 4.98847 1.7768 0. 1
 -15 1 1 2 0 0 1.65519 0.724003 -4.30928 4.99914 1.7768 0. -1
</event>
<event>
 4 80 1 -1 -1 -1
 11 -1 0 0 0 0 0 0 1.73982 1.73982 0 0. 9.
 -11 -1 0 0 0 0 0 0 -2.68251 2.68251 0 0. 9.
 15 1 1 2 0 0 0.321375 -1.17241 -0.65309 2.24991 1.7768 0. 1
 -15 1 1 2 0 0 -0.321375 1.17241 -0.2896 2.17242 1.7768 0. -1
</event>
<event>
 4 80 1 -1 -1 -1
 11 -1 0 0 0 0 0 0 5 5 0 0. 9.
 -11 -1 0 0 0 0 0 0 -5 5 0 0. 9.
 15 1 1 2 0 0 1.57877 -0.767922 4.33129 5 1.7768 0. 1
 -15 1 1 2 0 0 -1.57877 0.767922 -4.33129 5 1.7768 0. -1
</event>
<event>
 4 80 1 -1 -1 -1
 11 -1 0 0 0 0 0 0 5 5 0 0. 9.
 -11 -1 0 0 0 0 0 0 -5 5 0 0. 9.
 15 1 1 2 0 0 2.75046 -3.49931 -1.4255 5 1.7768 0. -1
 -15 1 1 2 0 0 -2.75046 3.49931 1.4255 5 1.7768 0. 1
</event>
<event>
 4 80 1 -1 -1 -1
 11 -1 0 0 0 0 0 0 4.99961 4.99961 0 0. 9.
 -11 -1 0 0 0 0 0 0 -4.72456 4.72456 0 0. 9.
 15 1 1 2 0 0 3.96058 0.281713 2.30581 4.92341 1.7768 0. -1
 -15 1 1 2 0 0 -3.96058 -0.281713 -2.03076 4.80075 1.7768 0. 1
</event>
<event>
 4 80 1 -1 -1 -1
 11 -1 0 0 0 0 0 0 5 5 0 0. 9.
 -11 -1 0 0 0 0 0 0 -5 5 0 0. 9.
 15 1 1 2 0 0 3.74387 0.516844 -2.74929 5 1.7768 0. -1
 -15 1 1 2 0 0 -3.74387 -0.516844 2.74929 5 1.7768 0. 1
</event>
<event>
 4 80 1 -1 -1 -1
 11 -1 0 0 0 0 0 0 4.99602 4.99602 0 0. 9.
 -11 -1 0 0 0 0 0 0 -4.99939 4.99939 0 0. 9.
 15 1 1 2 0 0 2.7247 3.39635 1.68951 4.99713 1.7768 0. -1
 -15 1 1 2 0 0 -2.7247 -3.39635 -1.69288 4.99827 1.7768 0. 1
</event>
<event>
 4 80 1 -1 -1 -1
 11 -1 0 0 0 0 0 0 4.82966 4.82966 0 0. 9.
 -11 -1 0 0 0 0 0 0 -5 5 0 0. 9.
 15 1 1 2 0 0 -0.82322 3.75896 -2.57212 4.95793 1.7768 0. -1
 -15 1 1 2 0 0 0.82322 -3.75896 2.40178 4.87173 1.7768 0. 1
</event>
<event>
 4 80 1 -1 -1 -1
 11 -1 0 0 0 0 0 0 3.54707 3.54707 0 0. 9.
 -11 -1 0 0 0 0 0 0 -5 5 0 0. 9.
 15 1 1 2 0 0 -2.73461 -2.52194 0.146098 4.12521 1.7768 0. -1
 -15 1 1 2 0 0 2.73461 2.52194 -1.59902 4.42186 1.7768 0. 1
</event>
<event>
 4 80 1 -1 -1 -1
 11 -1 0 0 0 0 0 0 5 5 0 0. 9.
 -11 -1 0 0 0 0 0 0 -5 5 0 0. 9.
 15 1 1 2 0 0 -1.32368 -1.04932 4.35764 5 1.7768 0. -1
 -15 1 1 2 0 0 1.32368 1.04932 -4.35764 5 1.7768 0. 1
</event>
<event>
 4 80 1 -1 -1 -1
 11 -1 0 0 0 0 0 0 3.62164 3.62164 0 0. 9.
 -11 -1 0 0 0 0 0 0 -5 5 0 0. 9.
 15 1 1 2 0 0 2.39961 1.23993 -3.49198 4.75891 1.7768 0. 1
 -15 1 1 2 0 0 -2.39961 -1.23993 2.11362 3.86273 1.7768 0. -1
</event>
<event>
 4 80 1 -1 -1 -1
 11 -1 0 0 0 0 0 0 5 5 0 0. 9.
 -11 -1 0 0 0 0 0 0 -5 5 0 0. 9.
 15 1 1 2 0 0 0.629448 -2.74099 -3.7327 5 1.7768 0. 1
 -15 1 1 2 0 0 -0.629448 2.74099 3.7327 5 1.7768 0. -1
</event>
<event>
 4 80 1 -1 -1 -1
 11 -1 0 0 0 0 0 0 4.99953 4.99953 0 0. 9.
 -11 -1 0 0 0 0 0 0 -4.67267 4.67267 0 0. 9.
 15 1 1 2 0 0 -1.67237 1.30577 4.12822 4.97009 1.7768 0. -1
 -15 1 1 2 0 0 1.67237 -1.30577 -3.80136 4.70212 1.7768 0. 1
</event>
<event>
 4 80 1 -1 -1 -1
 11 -1 0 0 0 0 0 0 5 5 0 0. 9.
 -11 -1 0 0 0 0 0 0 -5 5 0 0. 9.
 15 1 1 2 0 0 -1.24344 4.32164 1.2726 5 1.7768 0. 1
 -15 1 1 2 0 0 1.24344 -4.32164 -1.2726 5 1.7768 0. -1
</event>
<event>
 4 80 1 -1 -1 -1
 11 -1 0 0 0 0 0 0 5 5 0 0. 9.
 -11 -1 0 0 0 0 0 0 -4.99991 4.99991 0 0. 9.
 15 1 1 2 0 0 1.41691 -0.94331 -4.35247 4.99992 1.7768 0. 1
 -15 1 1 2 0 0 -1.41691 0.94331 4.35256 4.99999 1.7768 0. -1
</event>
<event>
 4 80 1 -1 -1 -1
 11 -1 0 0 0 0 0 0 5 5 0 0. 9.
 -11 -1 0 0 0 0 0 0 -5 5 0 0. 9.
 15 1 1 2 0 0 -1.75077 -1.68096 3.99393 5 1.7768 0. -1
 -15 1 1 2 0 0 1.75077 1.68096 -3.99393 5 1.7768 0. 1
</event>
<event>
 4 80 1 -1 -1 -1
 11 -1 0 0 0 0 0 0 5 5 0 0. 9.
 -11 -1 0 0 0 0 0 0 -4.16754 4.16754 0 0. 9.
 15 1 1 2 0 0 0.121948 -4.0972 -0.524711 4.49833 1.7768 0. 1
 -15 1 1 2 0 0 -0.121948 4.0972 1.35717 4.66921 1.7768 0. -1
</event>
<event>
 4 80 1 -1 -1 -1
 11 -1 0 0 0 0 0 0 4.95942 4.95942 0 0. 9.
 -11 -1 0 0 0 0 0 0 -5 5 0 0. 9.
 15 1 1 2 0 0 0.256996 -4.41748 1.4147 4.97386 1.7768 0. 1
 -15 1 1 2 0 0 -0.256996 4.41748 -1.45528 4.98556 1.7768 0. -1
</event>
<event>
 4 80 1 -1 -1 -1
 11 -1 0 0 0 0 0 0 5 5 0 0. 9.
 -11 -1 0 0 0 0 0 0 -4.99999 4.99999 0 0. 9.
 15 1 1 2 0 0 -0.657001 -4.62374 -0.177617 4.99999 1.7768 0. -1
 -15 1 1 2 0 0 0.657001 4.62374 0.177628 4.99999 1.7768 0. 1
</event>
<event>
 4 80 1 -1 -1 -1
 11 -1 0 0 0 0 0 0 5 5 0 0. 9.
 -11 -1 0 0 0 0 0 0 -5 5 0 0. 9.
 15 1 1 2 0 0 1.63721 -3.40724 2.74819 5 1.7768 0. 1
 -15 1 1 2 0 0 -1.63721 3.40724 -2.74819 5 1.7768 0. -1
</event>
<event>
 4 80 1 -1 -1 -1
 11 -1 0 0 0 0 0 0 5 5 0 0. 9.
 -11 -1 0 0 0 0 0 0 -5 5 0 0. 9.
 15 1 1 2 0 0 -2.4111 -1.82753 3.56216 5 1.7768 0. -1
 -15 1 1 2 0 0 2.4111 1.82753 -3.56216 5 1.7768 0. 1
</event>
<event>
 4 80 1 -1 -1 -1
 11 -1 0 0 0 0 0 0 4.88433 4.88433 0 0. 9.
 -11 -1 0 0 0 0 0 0 -4.93995 4.93995 0 0. 9.
 15 1 1 2 0 0 4.46988 -0.856186 0.479819 4.90926 1.7768 0. -1
 -15 1 1 2 0 0 -4.46988 0.856186 -0.535445 4.91501 1.7768 0. 1
</event>
<event>
 4 80 1 -1 -1 -1
 11 -1 0 0 0 0 0 0 4.96121 4.96121 0 0. 9.
 -11 -1 0 0 0 0 0 0 -5 5 0 0. 9.
 15 1 1 2 0 0 -1.85591 -0.689084 4.19123 4.96421 1.7768 0. -1
 -15 1 1 2 0 0 1.85591 0.689084 -4.23002 4.997 1.7768 0. 1
</event>
<event>
 4 80 1 -1 -1 -1
 11 -1 0 0 0 0 0 0 5 5 0 0. 9.
 -11 -1 0 0 0 0 0 0 -5 5 0 0. 9.
 15 1 1 2 0 0 4.45425 -0.21132 1.39902 5 1.7768 0. -1
 -15 1 1 2 0 0 -4.45425 0.21132 -1.39902 5 1.7768 0. 1
</event>
<event>
 4 80 1 -1 -1 -1
 11 -1 0 0 0 0 0 0 4.9996 4.9996 0 0. 9.
 -11 -1 0 0 0 0 0 0 -5 5 0 0. 9.
 15 1 1 2 0 0 -2.43409 1.88371 3.51649 4.99966 1.7768 0. -1
 -15 1 1 2 0 0 2.43409 -1.88371 -3.51689 4.99994 1.7768 0. 1
</event>
<event>
 4 80 1 -1 -1 -1
 11 -1 0 0 0 0 0 0 4.95694 4.95694 0 0. 9.
 -11 -1 0 0 0 0 0 0 -5 5 0 0. 9.
 15 1 1 2 0 0 3.57931 1.77631 2.35761 4.96818 1.7768 0. 1
 -15 1 1 2 0 0 -3.57931 -1.77631 -2.40067 4.98876 1.7768 0. -1
</event>
<event>
 4 80 1 -1 -1 -1
 11 -1 0 0 0 0 0 0 4.99677 4.99677 0 0. 9.
 -11 -1 0 0 0 0 0 0 -5 5 0 0. 9.
 15 1 1 2 0 0 -1.56038 -0.721876 4.34237 4.99698 1.7768 0. -1
 -15 1 1 2 0 0 1.56038 0.721876 -4.3456 4.99979 1.7768 0. 1
</event>
<event>
 4 80 1 -1 -1 -1
 11 -1 0 0 0 0 0 0 4.99987 4.99987 0 0. 9.
 -11 -1 0 0 0 0 0 0 -1.00586 1.00586 0 0. 9.
 15 1 1 2 0 0 0.477198 -0.865605 3.26339 3.84506 1.7768 0. 1
 -15 1 1 2 0 0 -0.477198 0.865605 0.730619 2.16068 1.7768 0. -1
</event>
<event>
 4 80 1 -1 -1 -1
 11 -1 0 0 0 0 0 0 4.90791 4.90791 0 0. 9.
 -11 -1 0 0 0 0 0 0 -5 5 0 0. 9.
 15 1 1 2 0 0 -1.21044 3.91251 2.10089 4.934 1.7768 0. -1
 -15 1 1 2 0 0 1.21044 -3.91251 -2.19298 4.97391 1.7768 0. 1
</event>
<event>
 4 80 1 -1 -1 -1
 11 -1 0 0 0 0 0 0 4.99686 4.99686 0 0. 9.
 -11 -1 0 0 0 0 0 0 -5 5 0 0. 9.
 15 1 1 2 0 0 -2.54163 1.94698 3.40078 4.99736 1.7768 0. 1
 -15 1 1 2 0 0 2.54163 -1.94698 -3.40391 4.9995 1.7768 0. -1
</event>
<event>
 4 80 1 -1 -1 -1
 11 -1 0 0 0 0 0 0 5 5 0 0. 9.
 -11 -1 0 0 0 0 0 0 -5 5 0 0. 9.
 15 1 1 2 0 0 -1.70968 3.92861 -1.86688 5 1.7768 0. -1
 -15 1 1 2 0 0 1.70968 -3.92861 1.86688 5 1.7768 0. 1
</event>
<event>
 4 80 1 -1 -1 -1
 11 -1 0 0 0 0 0 0 5 5 0 0. 9.
 -11 -1 0 0 0 0 0 0 -5 5 0 0. 9.
 15 1 1 2 0 0 0.28753 -1.91246 -4.25466 5 1.7768 0. -1
 -15 1 1 2 0 0 -0.28753 1.91246 4.25465 5 1.7768 0. 1
</event>
<event>
 4 80 1 -1 -1 -1
 11 -1 0 0 0 0 0 0 5 5 0 0. 9.
 -11 -1 0 0 0 0 0 0 -4.99885 4.99885 0 0. 9.
 15 1 1 2 0 0 -4.59354 -0.804188 -0.298049 4.99939 1.7768 0. -1
 -15 1 1 2 0 0 4.59354 0.804188 0.299199 4.99946 1.7768 0. 1
</event>
<event>
 4 80 1 -1 -1 -1
 11 -1 0 0 0 0 0 0 1.84647 1.84647 0 0. 9.
 -11 -1 0 0 0 0 0 0 -5 5 0 0. 9.
 15 1 1 2 0 0 -0.247783 0.99737 0.947099 2.26072 1.7768 0. 1
 -15 1 1 2 0 0 0.247783 -0.99737 -4.10063 4.58574 1.7768 0. -1
</event>
<event>
 4 80 1 -1 -1 -1
 11 -1 0 0 0 0 0 0 5 5 0 0. 9.
 -11 -1 0 0 0 0 0 0 -4.99997 4.99997 0 0. 9.
 15 1 1 2 0 0 3.05552 1.85098 -3.01326 4.99998 1.7768 0. 1
 -15 1 1 2 0 0 -3.05552 -1.85098 3.01328 4.99999 1.7768 0. -1
</event>
<event>
 4 80 1 -1 -1 -1
 11 -1 0 0 0 0 0 0 5 5 0 0. 9.
 -11 -1 0 0 0 0 0 0 -5 5 0 0. 9.
 15 1 1 2 0 0 -4.50778 1.11339 -0.53155 5 1.7768 0. 1
 -15 1 1 2 0 0 4.50778 -1.11339 0.53155 5 1.7768 0. -1
</event>
<event>
 4 80 1 -1 -1 -1
 11 -1 0 0 0 0 0 0 5 5 0 0. 9.
 -11 -1 0 0 0 0 0 0 -5 5 0 0. 9.
 15 1 1 2 0 0 2.63961 3.56112 -1.48093 5 1.7768 0. 1
 -15 1 1 2 0 0 -2.63961 -3.56112 1.48093 5 1.7768 0. -1
</event>
<event>
 4 80 1 -1 -1 -1
 11 -1 0 0 0 0 0 0 4.99993 4.99993 0 0. 9.
 -11 -1 0 0 0 0 0 0 -5 5 0 0. 9.
 15 1 1 2 0 0 -3.90757 -2.44237 -0.779544 4.99997 1.7768 0. -1
 -15 1 1 2 0 0 3.90757 2.44237 0.779476 4.99996 1.7768 0. 1
</event>
<event>
 4 80 1 -1 -1 -1
 11 -1 0 0 0 0 0 0 2.72031 2.72031 0 0. 9.
 -11 -1 0 0 0 0 0 0 -4.99988 4.99988 0 0. 9.
 15 1 1 2 0 0 -1.95594 -2.20598 -2.52495 4.2691 1.7768 0. 1
 -15 1 1 2 0 0 1.95594 2.20598 0.245381 3.45109 1.7768 0. -1
</event>
<event>
 4 80 1 -1 -1 -1
 11 -1 0 0 0 0 0 0 5 5 0 0. 9.
 -11 -1 0 0 0 0 0 0 -5 5 0 0. 9.
 15 1 1 2 0 0 -2.7612 -3.69938 0.729815 5 1.7768 0. 1
 -15 1 1 2 0 0 2.7612 3.69938 -0.729812 5 1.7768 0. -1
</event>
<event>
 4 80 1 -1 -1 -1
 11 -1 0 0 0 0 0 0 5 5 0 0. 9.
 -11 -1 0 0 0 0 0 0 -4.99993 4.99993 0 0. 9.
 15 1 1 2 0 0 2.39889 2.72878 -2.93953 4.99995 1.7768 0. -1
 -15 1 1 2 0 0 -2.39889 -2.72878 2.9396 4.99999 1.7768 0. 1
</event>
<event>
 4 80 1 -1 -1 -1
 11 -1 0 0 0 0 0 0 2.75726 2.75726 0 0. 9.
 -11 -1 0 0 0 0 0 0 -4.99999 4.99999 0 0. 9.
 15 1 1 2 0 0 2.18577 -1.39741 0.941089 3.28234 1.7768 0. 1
 -15 1 1 2 0 0 -2.18577 1.39741 -3.18382 4.47491 1.7768 0. -1
</event>
<event>
 4 80 1 -1 -1 -1
 11 -1 0 0 0 0 0 0 5 5 0 0. 9.
 -11 -1 0 0 0 0 0 0 -4.97977 4.97977 0 0. 9.
 15 1 1 2 0 0 -1.15744 4.50292 -0.343679 4.98917 1.7768 0. 1
 -15 1 1 2 0 0 1.15744 -4.50292 0.363906 4.9906 1.7768 0. -1
</event>
<event>
 4 80 1 -1 -1 -1
 11 -1 0 0 0 0 0 0 4.99858 4.99858 0 0. 9.
 -11 -1 0 0 0 0 0 0 -4.99705 4.99705 0 0. 9.
 15 1 1 2 0 0 3.06183 1.2164 3.31225 4.99832 1.7768 0. -1
 -15 1 1 2 0 0 -3.06183 -1.2164 -3.31072 4.99731 1.7768 0. 1
</event>
<event>
 4 80 1 -1 -1 -1
 11 -1 0 0 0 0 0 0 5 5 0 0. 9.
 -11 -1 0 0 0 0 0 0 -5 5 0 0. 9.
 15 1 1 2 0 0 -4.45767 1.248 -0.643368 5 1.7768 0. -1
 -15 1 1 2 0 0 4.45767 -1.248 0.643369 5 1.7768 0. 1
</event>
<event>
 4 80 1 -1 -1 -1
 11 -1 0 0 0 0 0 0 4.98874 4.98874 0 0. 9.
 -11 -1 0 0 0 0 0 0 -4.99999 4.99999 0 0. 9.
 15 1 1 2 0 0 -1.21281 4.50711 0.0256002 4.99433 1.7768 0. -1
 -15 1 1 2 0 0 1.21281 -4.50711 -0.0368561 4.9944 1.7768 0. 1
</event>
<event>
 4 80 1 -1 -1 -1
 11 -1 0 0 0 0 0 0 4.99999 4.99999 0 0. 9.
 -11 -1 0 0 0 0 0 0 -5 5 0 0. 9.
 15 1 1 2 0 0 -0.448198 2.78666 -3.72504 5 1.7768 0. 1
 -15 1 1 2 0 0 0.448198 -2.78666 3.72503 4.99999 1.7768 0. -1
</event>
<event>
 4 80 1 -1 -1 -1
 11 -1 0 0 0 0 0 0 4.99998 4.99998 0 0. 9.
 -11 -1 0 0 0 0 0 0 -5 5 0 0. 9.
 15 1 1 2 0 0 -2.19929 2.59385 -3.20582 5 1.7768 0. -1
 -15 1 1 2 0 0 2.19929 -2.59385 3.20581 4.99999 1.7768 0. 1
</event>
<event>
 4 80 1 -1 -1 -1
 11 -1 0 0 0 0 0 0 4.97496 4.97496 0 0. 9.
 -11 -1 0 0 0 0 0 0 -5 5 0 0. 9.
 15 1 1 2 0 0 1.16286 3.00169 -3.3822 4.99594 1.7768 0. 1
 -15 1 1 2 0 0 -1.16286 -3.00169 3.35716 4.97902 1.7768 0. -1
</event>
<event>
 4 80 1 -1 -1 -1
 11 -1 0 0 0 0 0 0 5 5 0 0. 9.
 -11 -1 0 0 0 0 0 0 -4.99949 4.99949 0 0. 9.
 15 1 1 2 0 0 3.01059 -3.5705 0.166427 4.99975 1.7768 0. 1
 -15 1 1 2 0 0 -3.01059 3.5705 -0.165924 4.99974 1.7768 0. -1
</event>
<event>
 4 80 1 -1 -1 -1
 11 -1 0 0 0 0 0 0 5 5 0 0. 9.
 -11 -1 0 0 0 0 0 0 -5 5 0 0. 9.
 15 1 1 2 0 0 -3.53114 -0.308925 3.04596 5 1.7768 0. 1
 -15 1 1 2 0 0 3.53114 0.308925 -3.04596 5 1.7768 0. -1
</event>
<event>
 4 80 1 -1 -1 -1
 11 -1 0 0 0 0 0 0 4.99997 4.99997 0 0. 9.
 -11 -1 0 0 0 0 0 0 -5 5 0 0. 9.
 15 1 1 2 0 0 3.4455 -1.99279 -2.44939 4.99999 1.7768 0. 1
 -15 1 1 2 0 0 -3.4455 1.99279 2.44936 4.99998 1.7768 0. -1
</event>
<event>
 4 80 1 -1 -1 -1
 11 -1 0 0 0 0 0 0 5 5 0 0. 9.
 -11 -1 0 0 0 0 0 0 -4.92112 4.92112 0 0. 9.
 15 1 1 2 0 0 -0.623439 0.185015 4.62488 4.99702 1.7768 0. 1
 -15 1 1 2 0 0 0.623439 -0.185015 -4.546 4.9241 1.7768 0. -1
</event>
<event>
 4 80 1 -1 -1 -1
 11 -1 0 0 0 0 0 0 5 5 0 0. 9.
 -11 -1 0 0 0 0 0 0 -5 5 0 0. 9.
 15 1 1 2 0 0 1.38973 -0.753973 -4.39801 5 1.7768 0. 1
 -15 1 1 2 0 0 -1.38973 0.753973 4.39801 5 1.7768 0. -1
</event>
<event>
 4 80 1 -1 -1 -1
 11 -1 0 0 0 0 0 0 4.99588 4.99588 0 0. 9.
 -11 -1 0 0 0 0 0 0 -5 5 0 0. 9.
 15 1 1 2 0 0 -0.302378 -3.785 -2.72309 4.99906 1.7768 0. 1
 -15 1 1 2 0 0 0.302378 3.785 2.71897 4.99682 1.7768 0. -1
</event>
<event>
 4 80 1 -1 -1 -1
 11 -1 0 0 0 0 0 0 5 5 0 0. 9.
 -11 -1 0 0 0 0 0 0 -4.98824 4.98824 0 0. 9.
 15 1 1 2 0 0 1.21118 -3.63681 -2.65684 4.99099 1.7768 0. -1
 -15 1 1 2 0 0 -1.21118 3.63681 2.6686 4.99726 1.7768 0. 1
</event>
<event>
 4 80 1 -1 -1 -1
 11 -1 0 0 0 0 0 0 4.99931 4.99931 0 0. 9.
 -11 -1 0 0 0 0 0 0 -4.96768 4.96768 0 0. 9.
 15 1 1 2 0 0 -1.16473 2.18355 -3.9279 4.97098 1.7768 0. 1
 -15 1 1 2 0 0 1.16473 -2.18355 3.95953 4.99601 1.7768 0. -1
</event>
<event>
 4 80 1 -1 -1 -1
 11 -1 0 0 0 0 0 0 5 5 0 0. 9.
 -11 -1 0 0 0 0 0 0 -5 5 0 0. 9.
 15 1 1 2 0 0 -2.17872 4.09237 -0.589856 5 1.7768 0. -1
 -15 1 1 2 0 0 2.17872 -4.09237 0.589856 5 1.7768 0. 1
</event>
<event>
 4 80 1 -1 -1 -1
 11 -1 0 0 0 0 0 0 5 5 0 0. 9.
 -11 -1 0 0 0 0 0 0 -5 5 0 0. 9.
 15 1 1 2 0 0 4.54065 0.513409 -0.980393 5 1.7768 0. -1
 -15 1 1 2 0 0 -4.54065 -0.513409 0.980393 5 1.7768 0. 1
</event>
<event>
 4 80 1 -1 -1 -1
 11 -1 0 0 0 0 0 0 5 5 0 0. 9.
 -11 -1 0 0 0 0 0 0 -5 5 0 0. 9.
 15 1 1 2 0 0 -3.14265 -3.45053 0.24466 5 1.7768 0. -1
 -15 1 1 2 0 0 3.14265 3.45053 -0.244656 5 1.7768 0. 1
</event>
<event>
 4 80 1 -1 -1 -1
 11 -1 0 0 0 0 0 0 5 5 0 0. 9.
 -11 -1 0 0 0 0 0 0 -5 5 0 0. 9.
 15 1 1 2 0 0 0.800467 1.35654 -4.40015 5 1.7768 0. 1
 -15 1 1 2 0 0 -0.800467 -1.35654 4.40015 5 1.7768 0. -1
</event>
<event>
 4 80 1 -1 -1 -1
 11 -1 0 0 0 0 0 0 4.40391 4.40391 0 0. 9.
 -11 -1 0 0 0 0 0 0 -5 5 0 0. 9.
 15 1 1 2 0 0 1.19832 3.61481 -2.39008 4.83456 1.7768 0. 1
 -15 1 1 2 0 0 -1.19832 -3.61481 1.79399 4.56935 1.7768 0. -1
</event>
<event>
 4 80 1 -1 -1 -1
 11 -1 0 0 0 0 0 0 5 5 0 0. 9.
 -11 -1 0 0 0 0 0 0 -5 5 0 0. 9.
 15 1 1 2 0 0 -1.27859 0.000360952 -4.49527 5 1.7768 0. -1
 -15 1 1 2 0 0 1.27859 -0.000360952 4.49527 5 1.7768 0. 1
</event>
<event>
 4 80 1 -1 -1 -1
 11 -1 0 0 0 0 0 0 5 5 0 0. 9.
 -11 -1 0 0 0 0 0 0 -4.98754 4.98754 0 0. 9.
 15 1 1 2 0 0 -2.78926 -2.65132 -2.63393 4.99047 1.7768 0. 1
 -15 1 1 2 0 0 2.78926 2.65132 2.64639 4.99706 1.7768 0. -1
</event>
<event>
 4 80 1 -1 -1 -1
 11 -1 0 0 0 0 0 0 4.99935 4.99935 0 0. 9.
 -11 -1 0 0 0 0 0 0 -5 5 0 0. 9.
 15 1 1 2 0 0 3.95793 -2.31785 0.894899 4.99962 1.7768 0. 1
 -15 1 1 2 0 0 -3.95793 2.31785 -0.895545 4.99973 1.7768 0. -1
</event>
<event>
 4 80 1 -1 -1 -1
 11 -1 0 0 0 0 0 0 5 5 0 0. 9.
 -11 -1 0 0 0 0 0 0 -4.99998 4.99998 0 0. 9.
 15 1 1 2 0 0 0.152114 -4.67087 -0.0447144 4.99999 1.7768 0. 1
 -15 1 1 2 0 0 -0.152114 4.67087 0.0447298 4.99999 1.7768 0. -1
</event>
<event>
 4 80 1 -1 -1 -1
 11 -1 0 0 0 0 0 0 5 5 0 0. 9.
 -11 -1 0 0 0 0 0 0 -2.6801 2.6801 0 0. 9.
 15 1 1 2 0 0 -0.149424 -1.63495 -1.72193 2.96953 1.7768 0. -1
 -15 1 1 2 0 0 0.149424 1.63495 4.04182 4.71057 1.7768 0. 1
</event>
<event>
 4 80 1 -1 -1 -1
 11 -1 0 0 0 0 0 0 4.9926 4.9926 0 0. 9.
 -11 -1 0 0 0 0 0 0 -5 5 0 0. 9.
 15 1 1 2 0 0 -0.916431 3.44056 -3.02495 4.99854 1.7768 0. 1
 -15 1 1 2 0 0 0.916431 -3.44056 3.01754 4.99406 1.7768 0. -1
</event>
<event>
 4 80 1 -1 -1 -1
 11 -1 0 0 0 0 0 0 4.568 4.568 0 0. 9.
 -11 -1 0 0 0 0 0 0 -5 5 0 0. 9.
 15 1 1 2 0 0 -1.49974 -2.5045 -3.56015 4.93499 1.7768 0. -1
 -15 1 1 2 0 0 1.49974 2.5045 3.12815 4.63301 1.7768 0. 1
</event>
<event>
 4 80 1 -1 -1 -1
 11 -1 0 0 0 0 0 0 4.98338 4.98338 0 0. 9.
 -11 -1 0 0 0 0 0 0 -4.99946 4.99946 0 0. 9.
 15 1 1 2 0 0 2.50334 -0.755285 3.85452 4.9852 1.7768 0. 1
 -15 1 1 2 0 0 -2.50334 0.755285 -3.8706 4.99764 1.7768 0. -1
</event>
<event>
 4 80 1 -1 -1 -1
 11 -1 0 0 0 0 0 0 4.9998 4.9998 0 0. 9.
 -11 -1 0 0 0 0 0 0 -5 5 0 0. 9.
 15 1 1 2 0 0 -1.61069 0.0964823 4.38597 4.99981 1.7768 0. -1
 -15 1 1 2 0 0 1.61069 -0.0964823 -4.38617 4.99999 1.7768 0. 1
</event>
<event>
 4 80 1 -1 -1 -1
 11 -1 0 0 0 0 0 0 5 5 0 0. 9.
 -11 -1 0 0 0 0 0 0 -4.99999 4.99999 0 0. 9.
 15 1 1 2 0 0 -3.98758 -2.412 -0.351714 5 1.7768 0. -1
 -15 1 1 2 0 0 3.98758 2.412 0.35172 5 1.7768 0. 1
</event>
<event>
 4 80 1 -1 -1 -1
 11 -1 0 0 0 0 0 0 5 5 0 0. 9.
 -11 -1 0 0 0 0 0 0 -4.54322 4.54322 0 0. 9.
 15 1 1 2 0 0 -0.525701 3.03007 -2.95341 4.61931 1.7768 0. 1
 -15 1 1 2 0 0 0.525701 -3.03007 3.41019 4.9239 1.7768 0. -1
</event>
<event>
 4 80 1 -1 -1 -1
 11 -1 0 0 0 0 0 0 5 5 0 0. 9.
 -11 -1 0 0 0 0 0 0 -4.99915 4.99915 0 0. 9.
 15 1 1 2 0 0 0.395967 0.594869 -4.61773 4.99919 1.7768 0. 1
 -15 1 1 2 0 0 -0.395967 -0.594869 4.61858 4.99997 1.7768 0. -1
</event>
<event>
 4 80 1 -1 -1 -1
 11 -1 0 0 0 0 0 0 5 5 0 0. 9.
 -11 -1 0 0 0 0 0 0 -5 5 0 0. 9.
 15 1 1 2 0 0 -3.61173 -0.462457 -2.92981 5 1.7768 0. 1
 -15 1 1 2 0 0 3.61173 0.462457 2.92981 5 1.7768 0. -1
</event>
<event>
 4 80 1 -1 -1 -1
 11 -1 0 0 0 0 0 0 4.99882 4.99882 0 0. 9.
 -11 -1 0 0 0 0 0 0 -3.77381 3.77381 0 0. 9.
 15 1 1 2 0 0 3.65279 1.23196 1.54153 4.51604 1.7768 0. 1
 -15 1 1 2 0 0 -3.65279 -1.23196 -0.316515 4.25659 1.7768 0. -1
</event>
<event>
 4 80 1 -1 -1 -1
 11 -1 0 0 0 0 0 0 5 5 0 0. 9.
 -11 -1 0 0 0 0 0 0 -4.72764 4.72764 0 0. 9.
 15 1 1 2 0 0 -0.713459 1.63042 4.29872 4.98036 1.7768 0. 1
 -15 1 1 2 0 0 0.713459 -1.63042 -4.02637 4.74728 1.7768 0. -1
</event>
<event>
 4 80 1 -1 -1 -1
 11 -1 0 0 0 0 0 0 5 5 0 0. 9.
 -11 -1 0 0 0 0 0 0 -4.99596 4.99596 0 0. 9.
 15 1 1 2 0 0 -4.29565 1.51776 1.03444 4.9984 1.7768 0. 1
 -15 1 1 2 0 0 4.29565 -1.51776 -1.0304 4.99756 1.7768 0. -1
</event>
<event>
 4 80 1 -1 -1 -1
 11 -1 0 0 0 0 0 0 5 5 0 0. 9.
 -11 -1 0 0 0 0 0 0 -4.19889 4.19889 0 0. 9.
 15 1 1 2 0 0 -0.488658 0.53796 -3.77567 4.23575 1.7768 0. 1
 -15 1 1 2 0 0 0.488658 -0.53796 4.57677 4.96314 1.7768 0. -1
</event>
<event>
 4 80 1 -1 -1 -1
 11 -1 0 0 0 0 0 0 5 5 0 0. 9.
 -11 -1 0 0 0 0 0 0 -5 5 0 0. 9.
 15 1 1 2 0 0 -1.32042 1.40357 4.25779 5 1.7768 0. -1
 -15 1 1 2 0 0 1.32042 -1.40357 -4.25779 5 1.7768 0. 1
</event>
<event>
 4 80 1 -1 -1 -1
 11 -1 0 0 0 0 0 0 5 5 0 0. 9.
 -11 -1 0 0 0 0 0 0 -5 5 0 0. 9.
 15 1 1 2 0 0 -4.34344 -1.36485 -1.05544 5 1.7768 0. 1
 -15 1 1 2 0 0 4.34344 1.36485 1.05544 5 1.7768 0. -1
</event>
<event>
 4 80 1 -1 -1 -1
 11 -1 0 0 0 0 0 0 4.99994 4.99994 0 0. 9.
 -11 -1 0 0 0 0 0 0 -1.27863 1.27863 0 0. 9.
 15 1 1 2 0 0 1.11296 1.40771 1.70853 3.04912 1.7768 0. -1
 -15 1 1 2 0 0 -1.11296 -1.40771 2.01278 3.22945 1.7768 0. 1
</event>
<event>
 4 80 1 -1 -1 -1
 11 -1 0 0 0 0 0 0 5 5 0 0. 9.
 -11 -1 0 0 0 0 0 0 -0.710833 0.710833 0 0. 9.
 15 1 1 2 0 0 0.404757 0.462533 2.35152 3.01084 1.7768 0. -1
 -15 1 1 2 0 0 -0.404757 -0.462533 1.93764 2.69999 1.7768 0. 1
</event>
<event>
 4 80 1 -1 -1 -1
 11 -1 0 0 0 0 0 0 4.82551 4.82551 0 0. 9.
 -11 -1 0 0 0 0 0 0 -4.97522 4.97522 0 0. 9.
 15 1 1 2 0 0 -1.42785 1.18745 -4.24684 4.96409 1.7768 0. -1
 -15 1 1 2 0 0 1.42785 -1.18745 4.09713 4.83664 1.7768 0. 1
</event>
<event>
 4 80 1 -1 -1 -1
 11 -1 0 0 0 0 0 0 5 5 0 0. 9.
 -11 -1 0 0 0 0 0 0 -4.99972 4.99972 0 0. 9.
 15 1 1 2 0 0 -2.9838 -3.53877 -0.643976 4.99984 1.7768 0. -1
 -15 1 1 2 0 0 2.9838 3.53877 0.64426 4.99988 1.7768 0. 1
</event>
<event>
 4 80 1 -1 -1 -1
 11 -1 0 0 0 0 0 0 4.99999 4.99999 0 0. 9.
 -11 -1 0 0 0 0 0 0 -4.99999 4.99999 0 0. 9.
 15 1 1 2 0 0 -2.89387 -2.50526 -2.68168 4.99999 1.7768 0. 1
 -15 1 1 2 0 0 2.89387 2.50526 2.68168 4.99999 1.7768 0. -1
</event>
<event>
 4 80 1 -1 -1 -1
 11 -1 0 0 0 0 0 0 4.99473 4.99473 0 0. 9.
 -11 -1 0 0 0 0 0 0 -5 5 0 0. 9.
 15 1 1 2 0 0 0.188194 -3.68608 2.85977 4.99586 1.7768 0. 1
 -15 1 1 2 0 0 -0.188194 3.68608 -2.86504 4.99887 1.7768 0. -1
</event>
<event>
 4 80 1 -1 -1 -1
 11 -1 0 0 0 0 0 0 4.99885 4.99885 0 0. 9.
 -11 -1 0 0 0 0 0 0 -4.99699 4.99699 0 0. 9.
 15 1 1 2 0 0 3.11395 -1.54813 3.11991 4.9985 1.7768 0. -1
 -15 1 1 2 0 0 -3.11395 1.54813 -3.11804 4.99734 1.7768 0. 1
</event>
<event>
 4 80 1 -1 -1 -1
 11 -1 0 0 0 0 0 0 5 5 0 0. 9.
 -11 -1 0 0 0 0 0 0 -5 5 0 0. 9.
 15 1 1 2 0 0 -2.71806 -1.37703 3.54376 5 1.7768 0. 1
 -15 1 1 2 0 0 2.71806 1.37703 -3.54376 5 1.7768 0. -1
</event>
<event>
 4 80 1 -1 -1 -1
 11 -1 0 0 0 0 0 0 4.97108 4.97108 0 0. 9.
 -11 -1 0 0 0 0 0 0 -5 5 0 0. 9.
 15 1 1 2 0 0 -0.263786 1.35338 -4.4638 4.99844 1.7768 0. -1
 -15 1 1 2 0 0 0.263786 -1.35338 4.43488 4.97263 1.7768 0. 1
</event>
<event>
 4 80 1 -1 -1 -1
 11 -1 0 0 0 0 0 0 4.98711 4.98711 0 0. 9.
 -11 -1 0 0 0 0 0 0 -5 5 0 0. 9.
 15 1 1 2 0 0 2.91832 0.714818 -3.5772 4.99816 1.7768 0. 1
 -15 1 1 2 0 0 -2.91832 -0.714818 3.56432 4.98895 1.7768 0. -1
</event>
<event>
 4 80 1 -1 -1 -1
 11 -1 0 0 0 0 0 0 1.30269 1.30269 0 0. 9.
 -11 -1 0 0 0 0 0 0 -5 5 0 0. 9.
 15 1 1 2 0 0 -1.22057 -1.08921 -0.830778 2.55423 1.7768 0. 1
 -15 1 1 2 0 0 1.22057 1.08921 -2.86653 3.74846 1.7768 0. -1
</event>
<event>
 4 80 1 -1 -1 -1
 11 -1 0 0 0 0 0 0 5 5 0 0. 9.
 -11 -1 0 0 0 0 0 0 -2.34123 2.34123 0 0. 9.
 15 1 1 2 0 0 1.65895 2.32737 0.668323 3.4312 1.7768 0. 1
 -15 1 1 2 0 0 -1.65895 -2.32737 1.99044 3.91003 1.7768 0. -1
</event>
<event>
 4 80 1 -1 -1 -1
 11 -1 0 0 0 0 0 0 5 5 0 0. 9.
 -11 -1 0 0 0 0 0 0 -4.62207 4.62207 0 0. 9.
 15 1 1 2 0 0 1.24082 -1.41991 4.24139 4.9702 1.7768 0. -1
 -15 1 1 2 0 0 -1.24082 1.41991 -3.86346 4.65186 1.7768 0. 1
</event>
<event>
 4 80 1 -1 -1 -1
 11 -1 0 0 0 0 0 0 5 5 0 0. 9.
 -11 -1 0 0 0 0 0 0 -5 5 0 0. 9.
 15 1 1 2 0 0 -2.56461 -2.55278 -2.95776 5 1.7768 0. 1
 -15 1 1 2 0 0 2.56461 2.55278 2.95776 5 1.7768 0. -1
</event>
<event>
 4 80 1 -1 -1 -1
 11 -1 0 0 0 0 0 0 5 5 0 0. 9.
 -11 -1 0 0 0 0 0 0 -4.93296 4.93296 0 0. 9.
 15 1 1 2 0 0 -0.302736 -1.70154 -4.27008 4.93743 1.7768 0. 1
 -15 1 1 2 0 0 0.302736 1.70154 4.33713 4.99553 1.7768 0. -1
</event>
<event>
 4 80 1 -1 -1 -1
 11 -1 0 0 0 0 0 0 5 5 0 0. 9.
 -11 -1 0 0 0 0 0 0 -4.39305 4.39305 0 0. 9.
 15 1 1 2 0 0 3.03292 -1.14819 -2.5819 4.51008 1.7768 0. 1
 -15 1 1 2 0 0 -3.03292 1.14819 3.18885 4.88297 1.7768 0. -1
</event>
<event>
 4 80 1 -1 -1 -1
 11 -1 0 0 0 0 0 0 4.99852 4.99852 0 0. 9.
 -11 -1 0 0 0 0 0 0 -5 5 0 0. 9.
 15 1 1 2 0 0 1.45599 1.52516 4.16926 4.99865 1.7768 0. -1
 -15 1 1 2 0 0 -1.45599 -1.52516 -4.17074 4.99988 1.7768 0. 1
</event>
<event>
 4 80 1 -1 -1 -1
 11 -1 0 0 0 0 0 0 5 5 0 0. 9.
 -11 -1 0 0 0 0 0 0 -4.99897 4.99897 0 0. 9.
 15 1 1 2 0 0 3.18006 -3.29184 0.942922 4.99958 1.7768 0. 1
 -15 1 1 2 0 0 -3.18006 3.29184 -0.941895 4.99939 1.7768 0. -1
</event>
<event>
 4 80 1 -1 -1 -1
 11 -1 0 0 0 0 0 0 5 5 0 0. 9.
 -11 -1 0 0 0 0 0 0 -4.99998 4.99998 0 0. 9.
 15 1 1 2 0 0 -3.18037 -1.81301 -2.90524 4.99999 1.7768 0. -1
 -15 1 1 2 0 0 3.18037 1.81301 2.90525 5 1.7768 0. 1
</event>
<event>
 4 80 1 -1 -1 -1
 11 -1 0 0 0 0 0 0 5 5 0 0. 9.
 -11 -1 0 0 0 0 0 0 -4.99927 4.99927 0 0. 9.
 15 1 1 2 0 0 -3.4624 2.81574 1.38674 4.99974 1.7768 0. -1
 -15 1 1 2 0 0 3.4624 -2.81574 -1.38601 4.99953 1.7768 0. 1
</event>
<event>
 4 80 1 -1 -1 -1
 11 -1 0 0 0 0 0 0 5 5 0 0. 9.
 -11 -1 0 0 0 0 0 0 -4.9995 4.9995 0 0. 9.
 15 1 1 2 0 0 -3.72756 2.76507 -0.54695 4.99972 1.7768 0. -1
 -15 1 1 2 0 0 3.72756 -2.76507 0.54745 4.99978 1.7768 0. 1
</event>
<event>
 4 80 1 -1 -1 -1
 11 -1 0 0 0 0 0 0 5 5 0 0. 9.
 -11 -1 0 0 0 0 0 0 -5 5 0 0. 9.
 15 1 1 2 0 0 -0.767441 1.81059 -4.2397 5 1.7768 0. 1
 -15 1 1 2 0 0 0.767441 -1.81059 4.2397 5 1.7768 0. -1
</event>
<event>
 4 80 1 -1 -1 -1
 11 -1 0 0 0 0 0 0 4.22607 4.22607 0 0. 9.
 -11 -1 0 0 0 0 0 0 -4.99806 4.99806 0 0. 9.
 15 1 1 2 0 0 0.359712 4.12854 0.506087 4.53741 1.7768 0. -1
 -15 1 1 2 0 0 -0.359712 -4.12854 -1.27808 4.68673 1.7768 0. 1
</event>
<event>
 4 80 1 -1 -1 -1
 11 -1 0 0 0 0 0 0 4.99743 4.99743 0 0. 9.
 -11 -1 0 0 0 0 0 0 -4.99299 4.99299 0 0. 9.
 15 1 1 2 0 0 -0.889552 4.54142 0.617533 4.99548 1.7768 0. 1
 -15 1 1 2 0 0 0.889552 -4.54142 -0.613092 4.99494 1.7768 0. -1
</event>
<event>
 4 80 1 -1 -1 -1
 11 -1 0 0 0 0 0 0 4.99995 4.99995 0 0. 9.
 -11 -1 0 0 0 0 0 0 -5 5 0 0. 9.
 15 1 1 2 0 0 2.28365 -0.164765 4.07426 4.99995 1.7768 0. 1
 -15 1 1 2 0 0 -2.28365 0.164765 -4.07431 5 1.7768 0. -1
</event>
<event>
 4 80 1 -1 -1 -1
 11 -1 0 0 0 0 0 0 5 5 0 0. 9.
 -11 -1 0 0 0 0 0 0 -5 5 0 0. 9.
 15 1 1 2 0 0 2.71786 -3.74683 -0.64556 5 1.7768 0. 1
 -15 1 1 2 0 0 -2.71786 3.74683 0.64556 5 1.7768 0. -1
</event>
<event>
 4 80 1 -1 -1 -1
 11 -1 0 0 0 0 0 0 4.99186 4.99186 0 0. 9.
 -11 -1 0 0 0 0 0 0 -5 5 0 0. 9.
 15 1 1 2 0 0 -0.0575098 4.64246 0.491776 4.99553 1.7768 0. -1
 -15 1 1 2 0 0 0.0575098 -4.64246 -0.499909 4.99633 1.7768 0. 1
</event>
<event>
 4 80 1 -1 -1 -1
 11 -1 0 0 0 0 0 0 4.52361 4.52361 0 0. 9.
 -11 -1 0 0 0 0 0 0 -5 5 0 0. 9.
 15 1 1 2 0 0 2.52911 -3.59264 0.158382 4.74197 1.7768 0. -1
 -15 1 1 2 0 0 -2.52911 3.59264 -0.634774 4.78164 1.7768 0. 1
</event>
<event>
 4 80 1 -1 -1 -1
 11 -1 0 0 0 0 0 0 5 5 0 0. 9.
 -11 -1 0 0 0 0 0 0 -4.52003 4.52003 0 0. 9.
 15 1 1 2 0 0 -3.85261 -0.863037 -1.72593 4.6609 1.7768 0. -1
 -15 1 1 2 0 0 3.85261 0.863037 2.2059 4.85913 1.7768 0. 1
</event>
<event>
 4 80 1 -1 -1 -1
 11 -1 0 0 0 0 0 0 3.59372 3.59372 0 0. 9.
 -11 -1 0 0 0 0 0 0 -4.99989 4.99989 0 0. 9.
 15 1 1 2 0 0 1.11496 -1.21858 -4.22655 4.87335 1.7768 0. 1
 -15 1 1 2 0 0 -1.11496 1.21858 2.82038 3.72026 1.7768 0. -1
</event>
<event>
 4 80 1 -1 -1 -1
 11 -1 0 0 0 0 0 0 5 5 0 0. 9.
 -11 -1 0 0 0 0 0 0 -4.99999 4.99999 0 0. 9.
 15 1 1 2 0 0 -2.53178 -3.87125 -0.667658 5 1.7768 0. -1
 -15 1 1 2 0 0 2.53178 3.87125 0.667665 5 1.7768 0. 1
</event>
<event>
 4 80 1 -1 -1 -1
 11 -1 0 0 0 0 0 0 5 5 0 0. 9.
 -11 -1 0 0 0 0 0 0 -5 5 0 0. 9.
 15 1 1 2 0 0 0.239102 -4.27517 -1.87297 5 1.7768 0. -1
 -15 1 1 2 0 0 -0.239102 4.27517 1.87297 5 1.7768 0. 1
</event>
<event>
 4 80 1 -1 -1 -1
 11 -1 0 0 0 0 0 0 5 5 0 0. 9.
 -11 -1 0 0 0 0 0 0 -4.3863 4.3863 0 0. 9.
 15 1 1 2 0 0 1.29381 -2.23596 3.79286 4.92107 1.7768 0. -1
 -15 1 1 2 0 0 -1.29381 2.23596 -3.17916 4.46523 1.7768 0. 1
</event>
<event>
 4 80 1 -1 -1 -1
 11 -1 0 0 0 0 0 0 5 5 0 0. 9.
 -11 -1 0 0 0 0 0 0 -4.89841 4.89841 0 0. 9.
 15 1 1 2 0 0 4.33411 1.58974 -0.0994853 4.94766 1.7768 0. 1
 -15 1 1 2 0 0 -4.33411 -1.58974 0.201077 4.95075 1.7768 0. -1
</event>
<event>
 4 80 1 -1 -1 -1
 11 -1 0 0 0 0 0 0 5 5 0 0. 9.
 -11 -1 0 0 0 0 0 0 -5 5 0 0. 9.
 15 1 1 2 0 0 3.34342 -2.8445 1.60394 5 1.7768 0. -1
 -15 1 1 2 0 0 -3.34342 2.8445 -1.60394 5 1.7768 0. 1
</event>
<event>
 4 80 1 -1 -1 -1
 11 -1 0 0 0 0 0 0 5 5 0 0. 9.
 -11 -1 0 0 0 0 0 0 -5 5 0 0. 9.
 15 1 1 2 0 0 -0.850906 -2.01948 -4.12794 5 1.7768 0. -1
 -15 1 1 2 0 0 0.850906 2.01948 4.12794 5 1.7768 0. 1
</event>
<event>
 4 80 1 -1 -1 -1
 11 -1 0 0 0 0 0 0 4.98852 4.98852 0 0. 9.
 -11 -1 0 0 0 0 0 0 -5 5 0 0. 9.
 15 1 1 2 0 0 -0.527507 2.19811 4.07776 4.98957 1.7768 0. 1
 -15 1 1 2 0 0 0.527507 -2.19811 -4.08924 4.99895 1.7768 0. -1
</event>
<event>
 4 80 1 -1 -1 -1
 11 -1 0 0 0 0 0 0 5 5 0 0. 9.
 -11 -1 0 0 0 0 0 0 -1.54168 1.54168 0 0. 9.
 15 1 1 2 0 0 -1.33529 0.405674 -0.171583 2.26599 1.7768 0. -1
 -15 1 1 2 0 0 1.33529 -0.405674 3.6299 4.27569 1.7768 0. 1
</event>
<event>
 4 80 1 -1 -1 -1
 11 -1 0 0 0 0 0 0 5 5 0 0. 9.
 -11 -1 0 0 0 0 0 0 -5 5 0 0. 9.
 15 1 1 2 0 0 3.41946 2.81609 -1.48971 5 1.7768 0. 1
 -15 1 1 2 0 0 -3.41946 -2.81609 1.48971 5 1.7768 0. -1
</event>
<event>
 4 80 1 -1 -1 -1
 11 -1 0 0 0 0 0 0 5 5 0 0. 9.
 -11 -1 0 0 0 0 0 0 -5 5 0 0. 9.
 15 1 1 2 0 0 -2.86741 -1.55088 -3.34888 5 1.7768 0. -1
 -15 1 1 2 0 0 2.86741 1.55088 3.34888 5 1.7768 0. 1
</event>
<event>
 4 80 1 -1 -1 -1
 11 -1 0 0 0 0 0 0 4.99376 4.99376 0 0. 9.
 -11 -1 0 0 0 0 0 0 -2.78048 2.78048 0 0. 9.
 15 1 1 2 0 0 -1.34673 0.229292 4.21189 4.77117 1.7768 0. 1
 -15 1 1 2 0 0 1.34673 -0.229292 -1.99862 3.00307 1.7768 0. -1
</event>
<event>
 4 80 1 -1 -1 -1
 11 -1 0 0 0 0 0 0 5 5 0 0. 9.
 -11 -1 0 0 0 0 0 0 -5 5 0 0. 9.
 15 1 1 2 0 0 1.7559 -3.5136 2.53253 5 1.7768 0. -1
 -15 1 1 2 0 0 -1.7559 3.5136 -2.53253 5 1.7768 0. 1
</event>
<event>
 4 80 1 -1 -1 -1
 11 -1 0 0 0 0 0 0 5 5 0 0. 9.
 -11 -1 0 0 0 0 0 0 -4.99987 4.99987 0 0. 9.
 15 1 1 2 0 0 4.13548 -1.56164 -1.51675 4.99991 1.7768 0. 1
 -15 1 1 2 0 0 -4.13548 1.56164 1.51688 4.99995 1.7768 0. -1
</event>
<event>
 4 80 1 -1 -1 -1
 11 -1 0 0 0 0 0 0 5 5 0 0. 9.
 -11 -1 0 0 0 0 0 0 -5 5 0 0. 9.
 15 1 1 2 0 0 -2.70075 -0.662249 3.75628 5 1.7768 0. -1
 -15 1 1 2 0 0 2.70075 0.662249 -3.75628 5 1.7768 0. 1
</event>
<event>
 4 80 1 -1 -1 -1
 11 -1 0 0 0 0 0 0 4.78315 4.78315 0 0. 9.
 -11 -1 0 0 0 0 0 0 -5 5 0 0. 9.
 15 1 1 2 0 0 1.85485 -4.15906 -0.248874 4.89469 1.7768 0. -1
 -15 1 1 2 0 0 -1.85485 4.15906 0.0320201 4.88846 1.7768 0. 1
</event>
<event>
 4 80 1 -1 -1 -1
 11 -1 0 0 0 0 0 0 2.86173 2.86173 0 0. 9.
 -11 -1 0 0 0 0 0 0 -5 5 0 0. 9.
 15 1 1 2 0 0 1.66934 -2.79382 -0.292311 3.71958 1.7768 0. -1
 -15 1 1 2 0 0 -1.66934 2.79382 -1.84595 4.14215 1.7768 0. 1
</event>
<event>
 4 80 1 -1 -1 -1
 11 -1 0 0 0 0 0 0 5 5 0 0. 9.
 -11 -1 0 0 0 0 0 0 -4.90963 4.90963 0 0. 9.
 15 1 1 2 0 0 -3.02553 -1.08925 3.3695 4.98513 1.7768 0. 1
 -15 1 1 2 0 0 3.02553 1.08925 -3.27912 4.9245 1.7768 0. -1
</event>
<event>
 4 80 1 -1 -1 -1
 11 -1 0 0 0 0 0 0 5 5 0 0. 9.
 -11 -1 0 0 0 0 0 0 -5 5 0 0. 9.
 15 1 1 2 0 0 2.90684 -1.95956 -3.09074 5 1.7768 0. 1
 -15 1 1 2 0 0 -2.90684 1.95956 3.09074 5 1.7768 0. -1
</event>
<event>
 4 80 1 -1 -1 -1
 11 -1 0 0 0 0 0 0 5 5 0 0. 9.
 -11 -1 0 0 0 0 0 0 -2.8794 2.8794 0 0. 9.
 15 1 1 2 0 0 1.03465 1.21661 4.12087 4.7634 1.7768 0. 1
 -15 1 1 2 0 0 -1.03465 -1.21661 -2.00028 3.116 1.7768 0. -1
</event>
<event>
 4 80 1 -1 -1 -1
 11 -1 0 0 0 0 0 0 5 5 0 0. 9.
 -11 -1 0 0 0 0 0 0 -5 5 0 0. 9.
 15 1 1 2 0 0 -4.63417 0.402069 0.452879 5 1.7768 0. 1
 -15 1 1 2 0 0 4.63417 -0.402069 -0.452879 5 1.7768 0. -1
</event>
<event>
 4 80 1 -1 -1 -1
 11 -1 0 0 0 0 0 0 5 5 0 0. 9.
 -11 -1 0 0 0 0 0 0 -5 5 0 0. 9.
 15 1 1 2 0 0 -4.46316 0.409273 -1.32475 5 1.7768 0. 1
 -15 1 1 2 0 0 4.46316 -0.409273 1.32475 5 1.7768 0. -1
</event>
<event>
 4 80 1 -1 -1 -1
 11 -1 0 0 0 0 0 0 5 5 0 0. 9.
 -11 -1 0 0 0 0 0 0 -5 5 0 0. 9.
 15 1 1 2 0 0 4.61516 0.527011 -0.514633 5 1.7768 0. -1
 -15 1 1 2 0 0 -4.61516 -0.527011 0.514633 5 1.7768 0. 1
</event>
<event>
 4 80 1 -1 -1 -1
 11 -1 0 0 0 0 0 0 5 5 0 0. 9.
 -11 -1 0 0 0 0 0 0 -4.93209 4.93209 0 0. 9.
 15 1 1 2 0 0 3.18191 0.838824 3.30122 4.98838 1.7768 0. -1
 -15 1 1 2 0 0 -3.18191 -0.838824 -3.23331 4.9437 1.7768 0. 1
</event>
<event>
 4 80 1 -1 -1 -1
 11 -1 0 0 0 0 0 0 5 5 0 0. 9.
 -11 -1 0 0 0 0 0 0 -3.13524 3.13524 0 0. 9.
 15 1 1 2 0 0 -0.139894 3.35384 -0.216545 3.80427 1.7768 0. -1
 -15 1 1 2 0 0 0.139894 -3.35384 2.0813 4.33098 1.7768 0. 1
</event>
<event>
 4 80 1 -1 -1 -1
 11 -1 0 0 0 0 0 0 5 5 0 0. 9.
 -11 -1 0 0 0 0 0 0 -5 5 0 0. 9.
 15 1 1 2 0 0 -4.39608 1.58642 0.00280633 5 1.7768 0. 1
 -15 1 1 2 0 0 4.39608 -1.58642 -0.0028057 5 1.7768 0. -1
</event>
<event>
 4 80 1 -1 -1 -1
 11 -1 0 0 0 0 0 0 4.99938 4.99938 0 0. 9.
 -11 -1 0 0 0 0 0 0 -5 5 0 0. 9.
 15 1 1 2 0 0 -1.61053 3.45222 -2.70725 4.99986 1.7768 0. -1
 -15 1 1 2 0 0 1.61053 -3.45222 2.70663 4.99952 1.7768 0. 1
</event>
<event>
 4 80 1 -1 -1 -1
 11 -1 0 0 0 0 0 0 4.78837 4.78837 0 0. 9.
 -11 -1 0 0 0 0 0 0 -5 5 0 0. 9.
 15 1 1 2 0 0 -0.202291 -0.52362 -4.63114 4.99202 1.7768 0. 1
 -15 1 1 2 0 0 0.202291 0.52362 4.41951 4.79634 1.7768 0. -1
</event>
<event>
 4 80 1 -1 -1 -1
 11 -1 0 0 0 0 0 0 4.99889 4.99889 0 0. 9.
 -11 -1 0 0 0 0 0 0 -5 5 0 0. 9.
 15 1 1 2 0 0 2.83509 -0.805106 3.62584 4.99904 1.7768 0. 1
 -15 1 1 2 0 0 -2.83509 0.805106 -3.62695 4.99985 1.7768 0. -1
</event>
<event>
 4 80 1 -1 -1 -1
 11 -1 0 0 0 0 0 0 5 5 0 0. 9.
 -11 -1 0 0 0 0 0 0 -4.99972 4.99972 0 0. 9.
 15 1 1 2 0 0 1.16707 1.58251 4.23977 4.99998 1.7768 0. -1
 -15 1 1 2 0 0 -1.16707 -1.58251 -4.23949 4.99974 1.7768 0. 1
</event>
<event>
 4 80 1 -1 -1 -1
 11 -1 0 0 0 0 0 0 5 5 0 0. 9.
 -11 -1 0 0 0 0 0 0 -5 5 0 0. 9.
 15 1 1 2 0 0 -2.23045 3.12985 2.65921 5 1.7768 0. 1
 -15 1 1 2 0 0 2.23045 -3.12985 -2.65921 5 1.7768 0. -1
</event>
<event>
 4 80 1 -1 -1 -1
 11 -1 0 0 0 0 0 0 5 5 0 0. 9.
 -11 -1 0 0 0 0 0 0 -5 5 0 0. 9.
 15 1 1 2 0 0 -2.99731 -3.56883 -0.349108 5 1.7768 0. 1
 -15 1 1 2 0 0 2.99731 3.56883 0.349108 5 1.7768 0. -1
</event>
<event>
 4 80 1 -1 -1 -1
 11 -1 0 0 0 0 0 0 4.94796 4.94796 0 0. 9.
 -11 -1 0 0 0 0 0 0 -4.99998 4.99998 0 0. 9.
 15 1 1 2 0 0 3.61442 1.772 2.29307 4.96185 1.7768 0. -1
 -15 1 1 2 0 0 -3.61442 -1.772 -2.34509 4.9861 1.7768 0. 1
</event>
<event>
 4 80 1 -1 -1 -1
 11 -1 0 0 0 0 0 0 5 5 0 0. 9.
 -11 -1 0 0 0 0 0 0 -5 5 0 0. 9.
 15 1 1 2 0 0 -2.16081 2.30602 3.44317 5 1.7768 0. 1
 -15 1 1 2 0 0 2.16081 -2.30602 -3.44317 5 1.7768 0. -1
</event>
<event>
 4 80 1 -1 -1 -1
 11 -1 0 0 0 0 0 0 5 5 0 0. 9.
 -11 -1 0 0 0 0 0 0 -5 5 0 0. 9.
 15 1 1 2 0 0 0.311164 -4.65434 -0.28742 5 1.7768 0. -1
 -15 1 1 2 0 0 -0.311164 4.65434 0.28742 5 1.7768 0. 1
</event>
<event>
 4 80 1 -1 -1 -1
 11 -1 0 0 0 0 0 0 4.99998 4.99998 0 0. 9.
 -11 -1 0 0 0 0 0 0 -4.4055 4.4055 0 0. 9.
 15 1 1 2 0 0 -1.28964 -1.36977 -3.62599 4.45477 1.7768 0. -1
 -15 1 1 2 0 0 1.28964 1.36977 4.22047 4.95071 1.7768 0. 1
</event>
<event>
 4 80 1 -1 -1 -1
 11 -1 0 0 0 0 0 0 5 5 0 0. 9.
 -11 -1 0 0 0 0 0 0 -5 5 0 0. 9.
 15 1 1 2 0 0 -0.0561098 1.08777 4.54487 5 1.7768 0. -1
 -15 1 1 2 0 0 0.0561098 -1.08777 -4.54487 5 1.7768 0. 1
</event>
<event>
 4 80 1 -1 -1 -1
 11 -1 0 0 0 0 0 0 4.80219 4.80219 0 0. 9.
 -11 -1 0 0 0 0 0 0 -5 5 0 0. 9.
 15 1 1 2 0 0 2.6541 -1.27347 3.39283 4.83063 1.7768 0. -1
 -15 1 1 2 0 0 -2.6541 1.27347 -3.59064 4.97156 1.7768 0. 1
</event>
<event>
 4 80 1 -1 -1 -1
 11 -1 0 0 0 0 0 0 5 5 0 0. 9.
 -11 -1 0 0 0 0 0 0 -4.99998 4.99998 0 0. 9.
 15 1 1 2 0 0 4.04245 -2.33339 -0.236803 4.99999 1.7768 0. -1
 -15 1 1 2 0 0 -4.04245 2.33339 0.23682 4.99999 1.7768 0. 1
</event>
<event>
 4 80 1 -1 -1 -1
 11 -1 0 0 0 0 0 0 1.49619 1.49619 0 0. 9.
 -11 -1 0 0 0 0 0 0 -5 5 0 0. 9.
 15 1 1 2 0 0 -0.107713 -1.90285 -0.764885 2.71573 1.7768 0. 1
 -15 1 1 2 0 0 0.107713 1.90285 -2.73892 3.78046 1.7768 0. -1
</event>
<event>
 4 80 1 -1 -1 -1
 11 -1 0 0 0 0 0 0 4.95554 4.95554 0 0. 9.
 -11 -1 0 0 0 0 0 0 -5 5 0 0. 9.
 15 1 1 2 0 0 -1.87988 -0.708793 4.17109 4.95904 1.7768 0. -1
 -15 1 1 2 0 0 1.87988 0.708793 -4.21556 4.9965 1.7768 0. 1
</event>
<event>
 4 80 1 -1 -1 -1
 11 -1 0 0 0 0 0 0 5 5 0 0. 9.
 -11 -1 0 0 0 0 0 0 -4.86476 4.86476 0 0. 9.
 15 1 1 2 0 0 -1.98206 -2.78607 3.14611 4.97459 1.7768 0. -1
 -15 1 1 2 0 0 1.98206 2.78607 -3.01088 4.89018 1.7768 0. 1
</event>
<event>
 4 80 1 -1 -1 -1
 11 -1 0 0 0 0 0 0 2.41551 2.41551 0 0. 9.
 -11 -1 0 0 0 0 0 0 -5 5 0 0. 9.
 15 1 1 2 0 0 -1.3712 2.57395 -1.97907 3.94713 1.7768 0. -1
 -15 1 1 2 0 0 1.3712 -2.57395 -0.605416 3.46838 1.7768 0. 1
</event>
<event>
 4 80 1 -1 -1 -1
 11 -1 0 0 0 0 0 0 4.99995 4.99995 0 0. 9.
 -11 -1 0 0 0 0 0 0 -5 5 0 0. 9.
 15 1 1 2 0 0 -3.10471 2.73354 2.17496 4.99996 1.7768 0. 1
 -15 1 1 2 0 0 3.10471 -2.73354 -2.17501 4.99999 1.7768 0. -1
</event>
<event>
 4 80 1 -1 -1 -1
 11 -1 0 0 0 0 0 0 4.96724 4.96724 0 0. 9.
 -11 -1 0 0 0 0 0 0 -4.36173 4.36173 0 0. 9.
 15 1 1 2 0 0 4.13716 -0.789344 -0.575914 4.60745 1.7768 0. -1
 -15 1 1 2 0 0 -4.13716 0.789344 1.18143 4.72151 1.7768 0. 1
</event>
<event>
 4 80 1 -1 -1 -1
 11 -1 0 0 0 0 0 0 3.03721 3.03721 0 0. 9.
 -11 -1 0 0 0 0 0 0 -5 5 0 0. 9.
 15 1 1 2 0 0 2.20172 2.35241 0.341986 3.69542 1.7768 0. -1
 -15 1 1 2 0 0 -2.20172 -2.35241 -2.30478 4.34179 1.7768 0. 1
</event>
<event>
 4 80 1 -1 -1 -1
 11 -1 0 0 0 0 0 0 5 5 0 0. 9.
 -11 -1 0 0 0 0 0 0 -5 5 0 0. 9.
 15 1 1 2 0 0 2.73438 -1.76555 3.35384 5 1.7768 0. -1
 -15 1 1 2 0 0 -2.73438 1.76555 -3.35384 5 1.7768 0. 1
</event>
<event>
 4 80 1 -1 -1 -1
 11 -1 0 0 0 0 0 0 4.99933 4.99933 0 0. 9.
 -11 -1 0 0 0 0 0 0 -4.90574 4.90574 0 0. 9.
 15 1 1 2 0 0 1.13486 -2.64555 3.66369 4.98671 1.7768 0. -1
 -15 1 1 2 0 0 -1.13486 2.64555 -3.57011 4.91836 1.7768 0. 1
</event>
<event>
 4 80 1 -1 -1 -1
 11 -1 0 0 0 0 0 0 5 5 0 0. 9.
 -11 -1 0 0 0 0 0 0 -5 5 0 0. 9.
 15 1 1 2 0 0 1.04435 1.92958 4.12654 5 1.7768 0. -1
 -15 1 1 2 0 0 -1.04435 -1.92958 -4.12654 5 1.7768 0. 1
</event>
<event>
 4 80 1 -1 -1 -1
 11 -1 0 0 0 0 0 0 4.99984 4.99984 0 0. 9.
 -11 -1 0 0 0 0 0 0 -4.9583 4.9583 0 0. 9.
 15 1 1 2 0 0 -2.20973 -1.21932 3.92764 4.99537 1.7768 0. 1
 -15 1 1 2 0 0 2.20973 1.21932 -3.8861 4.96277 1.7768 0. -1
</event>
<event>
 4 80 1 -1 -1 -1
 11 -1 0 0 0 0 0 0 4.99731 4.99731 0 0. 9.
 -11 -1 0 0 0 0 0 0 -5 5 0 0. 9.
 15 1 1 2 0 0 1.15783 4.40343 -1.04922 4.99894 1.7768 0. -1
 -15 1 1 2 0 0 -1.15783 -4.40343 1.04653 4.99837 1.7768 0. 1
</event>
<event>
 4 80 1 -1 -1 -1
 11 -1 0 0 0 0 0 0 4.99994 4.99994 0 0. 9.
 -11 -1 0 0 0 0 0 0 -4.99724 4.99724 0 0. 9.
 15 1 1 2 0 0 -3.29996 -1.66517 2.85891 4.99936 1.7768 0. -1
 -15 1 1 2 0 0 3.29996 1.66517 -2.85622 4.99782 1.7768 0. 1
</event>
<event>
 4 80 1 -1 -1 -1
 11 -1 0 0 0 0 0 0 5 5 0 0. 9.
 -11 -1 0 0 0 0 0 0 -4.98872 4.98872 0 0. 9.
 15 1 1 2 0 0 -0.55849 -3.62717 2.88966 4.99762 1.7768 0. -1
 -15 1 1 2 0 0 0.55849 3.62717 -2.87838 4.9911 1.7768 0. 1
</event>
<event>
 4 80 1 -1 -1 -1
 11 -1 0 0 0 0 0 0 5 5 0 0. 9.
 -11 -1 0 0 0 0 0 0 -4.88737 4.88737 0 0. 9.
 15 1 1 2 0 0 -4.58841 0.177921 0.496756 4.9487 1.7768 0. -1
 -15 1 1 2 0 0 4.58841 -0.177921 -0.384123 4.93867 1.7768 0. 1
</event>
<event>
 4 80 1 -1 -1 -1
 11 -1 0 0 0 0 0 0 4.99924 4.99924 0 0. 9.
 -11 -1 0 0 0 0 0 0 -5 5 0 0. 9.
 15 1 1 2 0 0 -3.01137 -1.82231 3.0736 4.99939 1.7768 0. -1
 -15 1 1 2 0 0 3.01137 1.82231 -3.07436 4.99985 1.7768 0. 1
</event>
<event>
 4 80 1 -1 -1 -1
 11 -1 0 0 0 0 0 0 4.99126 4.99126 0 0. 9.
 -11 -1 0 0 0 0 0 0 -5 5 0 0. 9.
 15 1 1 2 0 0 3.2978 -1.65613 2.85575 4.99313 1.7768 0. 1
 -15 1 1 2 0 0 -3.2978 1.65613 -2.86449 4.99813 1.7768 0. -1
</event>
<event>
 4 80 1 -1 -1 -1
 11 -1 0 0 0 0 0 0 5 5 0 0. 9.
 -11 -1 0 0 0 0 0 0 -4.99995 4.99995 0 0. 9.
 15 1 1 2 0 0 -2.72941 0.439679 -3.76813 4.99995 1.7768 0. 1
 -15 1 1 2 0 0 2.72941 -0.439679 3.76818 4.99999 1.7768 0. -1
</event>
<event>
 4 80 1 -1 -1 -1
 11 -1 0 0 0 0 0 0 5 5 0 0. 9.
 -11 -1 0 0 0 0 0 0 -4.99916 4.99916 0 0. 9.
 15 1 1 2 0 0 1.12606 1.85776 -4.13707 4.99923 1.7768 0. -1
 -15 1 1 2 0 0 -1.12606 -1.85776 4.13791 4.99993 1.7768 0. 1
</event>
<event>
 4 80 1 -1 -1 -1
 11 -1 0 0 0 0 0 0 5 5 0 0. 9.
 -11 -1 0 0 0 0 0 0 -5 5 0 0. 9.
 15 1 1 2 0 0 1.9342 2.33902 3.55389 5 1.7768 0. -1
 -15 1 1 2 0 0 -1.9342 -2.33902 -3.55389 5 1.7768 0. 1
</event>
<event>
 4 80 1 -1 -1 -1
 11 -1 0 0 0 0 0 0 5 5 0 0. 9.
 -11 -1 0 0 0 0 0 0 -5 5 0 0. 9.
 15 1 1 2 0 0 1.39946 -1.55348 4.17977 5 1.7768 0. -1
 -15 1 1 2 0 0 -1.39946 1.55348 -4.17977 5 1.7768 0. 1
</event>
<event>
 4 80 1 -1 -1 -1
 11 -1 0 0 0 0 0 0 4.99999 4.99999 0 0. 9.
 -11 -1 0 0 0 0 0 0 -5 5 0 0. 9.
 15 1 1 2 0 0 -1.88239 -1.30233 4.07464 4.99999 1.7768 0. 1
 -15 1 1 2 0 0 1.88239 1.30233 -4.07466 5 1.7768 0. -1
</event>
<event>
 4 80 1 -1 -1 -1
 11 -1 0 0 0 0 0 0 4.99985 4.99985 0 0. 9.
 -11 -1 0 0 0 0 0 0 -4.80433 4.80433 0 0. 9.
 15 1 1 2 0 0 2.20815 -1.26439 -3.69623 4.82643 1.7768 0. 1
 -15 1 1 2 0 0 -2.20815 1.26439 3.89175 4.97775 1.7768 0. -1
</event>
<event>
 4 80 1 -1 -1 -1
 11 -1 0 0 0 0 0 0 5 5 0 0. 9.
 -11 -1 0 0 0 0 0 0 -5 5 0 0. 9.
 15 1 1 2 0 0 -1.30676 -1.46521 4.24121 5 1.7768 0. 1
 -15 1 1 2 0 0 1.30676 1.46521 -4.24121 5 1.7768 0. -1
</event>
<event>
 4 80 1 -1 -1 -1
 11 -1 0 0 0 0 0 0 5 5 0 0. 9.
 -11 -1 0 0 0 0 0 0 -4.68376 4.68376 0 0. 9.
 15 1 1 2 0 0 -3.87301 -2.09108 1.10111 4.87268 1.7768 0. -1
 -15 1 1 2 0 0 3.87301 2.09108 -0.784871 4.81109 1.7768 0. 1
</event>
<event>
 4 80 1 -1 -1 -1
 11 -1 0 0 0 0 0 0 5 5 0 0. 9.
 -11 -1 0 0 0 0 0 0 -5 5 0 0. 9.
 15 1 1 2 0 0 3.19156 1.44371 -3.09385 5 1.7768 0. 1
 -15 1 1 2 0 0 -3.19156 -1.44371 3.09385 5 1.7768 0. -1
</event>
<event>
 4 80 1 -1 -1 -1
 11 -1 0 0 0 0 0 0 5 5 0 0. 9.
 -11 -1 0 0 0 0 0 0 -5 5 0 0. 9.
 15 1 1 2 0 0 3.19849 -1.23528 3.17584 5 1.7768 0. -1
 -15 1 1 2 0 0 -3.19849 1.23528 -3.17584 5 1.7768 0. 1
</event>
<event>
 4 80 1 -1 -1 -1
 11 -1 0 0 0 0 0 0 5 5 0 0. 9.
 -11 -1 0 0 0 0 0 0 -5 5 0 0. 9.
 15 1 1 2 0 0 3.47836 -3.11825 -0.140838 5 1.7768 0. 1
 -15 1 1 2 0 0 -3.47836 3.11825 0.140838 5 1.7768 0. -1
</event>
<event>
 4 80 1 -1 -1 -1
 11 -1 0 0 0 0 0 0 5 5 0 0. 9.
 -11 -1 0 0 0 0 0 0 -4.99227 4.99227 0 0. 9.
 15 1 1 2 0 0 -3.10306 -3.1592 -1.47738 4.99499 1.7768 0. 1
 -15 1 1 2 0 0 3.10306 3.1592 1.48511 4.99728 1.7768 0. -1
</event>
<event>
 4 80 1 -1 -1 -1
 11 -1 0 0 0 0 0 0 5 5 0 0. 9.
 -11 -1 0 0 0 0 0 0 -5 5 0 0. 9.
 15 1 1 2 0 0 3.65223 -0.423176 -2.8852 5 1.7768 0. 1
 -15 1 1 2 0 0 -3.65223 0.423176 2.8852 5 1.7768 0. -1
</event>
<event>
 4 80 1 -1 -1 -1
 11 -1 0 0 0 0 0 0 5 5 0 0. 9.
 -11 -1 0 0 0 0 0 0 -5 5 0 0. 9.
 15 1 1 2 0 0 -3.83011 0.362294 -2.65355 5 1.7768 0. 1
 -15 1 1 2 0 0 3.83011 -0.362294 2.65355 5 1.7768 0. -1
</event>
<event>
 4 80 1 -1 -1 -1
 11 -1 0 0 0 0 0 0 5 5 0 0. 9.
 -11 -1 0 0 0 0 0 0 -5 5 0 0. 9.
 15 1 1 2 0 0 -1.06907 -1.38877 4.33251 5 1.7768 0. 1
 -15 1 1 2 0 0 1.06907 1.38877 -4.33251 5 1.7768 0. -1
</event>
<event>
 4 80 1 -1 -1 -1
 11 -1 0 0 0 0 0 0 5 5 0 0. 9.
 -11 -1 0 0 0 0 0 0 -5 5 0 0. 9.
 15 1 1 2 0 0 -2.62156 2.20874 -3.17666 5 1.7768 0. 1
 -15 1 1 2 0 0 2.62156 -2.20874 3.17666 5 1.7768 0. -1
</event>
<event>
 4 80 1 -1 -1 -1
 11 -1 0 0 0 0 0 0 4.99998 4.99998 0 0. 9.
 -11 -1 0 0 0 0 0 0 -5 5 0 0. 9.
 15 1 1 2 0 0 -1.6629 -1.62753 -4.05317 5 1.7768 0. -1
 -15 1 1 2 0 0 1.6629 1.62753 4.05315 4.99998 1.7768 0. 1
</event>
<event>
 4 80 1 -1 -1 -1
 11 -1 0 0 0 0 0 0 5 5 0 0. 9.
 -11 -1 0 0 0 0 0 0 -4.99913 4.99913 0 0. 9.
 15 1 1 2 0 0 3.81359 -1.74991 -2.05682 4.99939 1.7768 0. 1
 -15 1 1 2 0 0 -3.81359 1.74991 2.05769 4.99974 1.7768 0. -1
</event>
<event>
 4 80 1 -1 -1 -1
 11 -1 0 0 0 0 0 0 5 5 0 0. 9.
 -11 -1 0 0 0 0 0 0 -5 5 0 0. 9.
 15 1 1 2 0 0 2.83917 0.655864 3.65393 5 1.7768 0. -1
 -15 1 1 2 0 0 -2.83917 -0.655864 -3.65393 5 1.7768 0. 1
</event>
<event>
 4 80 1 -1 -1 -1
 11 -1 0 0 0 0 0 0 5 5 0 0. 9.
 -11 -1 0 0 0 0 0 0 -4.9992 4.9992 0 0. 9.
 15 1 1 2 0 0 -0.205716 -4.32787 1.75127 4.99974 1.7768 0. -1
 -15 1 1 2 0 0 0.205716 4.32787 -1.75047 4.99946 1.7768 0. 1
</event>
<event>
 4 80 1 -1 -1 -1
 11 -1 0 0 0 0 0 0 4.99997 4.99997 0 0. 9.
 -11 -1 0 0 0 0 0 0 -3.32918 3.32918 0 0. 9.
 15 1 1 2 0 0 2.34861 1.06895 -1.83214 3.62948 1.7768 0. -1
 -15 1 1 2 0 0 -2.34861 -1.06895 3.50294 4.69967 1.7768 0. 1
</event>
<event>
 4 80 1 -1 -1 -1
 11 -1 0 0 0 0 0 0 5 5 0 0. 9.
 -11 -1 0 0 0 0 0 0 -1.21589 1.21589 0 0. 9.
 15 1 1 2 0 0 0.84642 0.0887997 0.0235395 1.97043 1.7768 0. 1
 -15 1 1 2 0 0 -0.84642 -0.0887997 3.76057 4.24546 1.7768 0. -1
</event>
<event>
 4 80 1 -1 -1 -1
 11 -1 0 0 0 0 0 0 5 5 0 0. 9.
 -11 -1 0 0 0 0 0 0 -5 5 0 0. 9.
 15 1 1 2 0 0 4.16494 -0.674575 -2.0101 5 1.7768 0. 1
 -15 1 1 2 0 0 -4.16494 0.674575 2.0101 5 1.7768 0. -1
</event>
<event>
 4 80 1 -1 -1 -1
 11 -1 0 0 0 0 0 0 5 5 0 0. 9.
 -11 -1 0 0 0 0 0 0 -5 5 0 0. 9.
 15 1 1 2 0 0 1.77099 -2.8869 3.2205 5 1.7768 0. 1
 -15 1 1 2 0 0 -1.77099 2.8869 -3.2205 5 1.7768 0. -1
</event>
<event>
 4 80 1 -1 -1 -1
 11 -1 0 0 0 0 0 0 5 5 0 0. 9.
 -11 -1 0 0 0 0 0 0 -4.20475 4.20475 0 0. 9.
 15 1 1 2 0 0 3.21048 -2.45439 -0.845909 4.49494 1.7768 0. 1
 -15 1 1 2 0 0 -3.21048 2.45439 1.64116 4.70981 1.7768 0. -1
</event>
<event>
 4 80 1 -1 -1 -1
 11 -1 0 0 0 0 0 0 5 5 0 0. 9.
 -11 -1 0 0 0 0 0 0 -4.686 4.686 0 0. 9.
 15 1 1 2 0 0 -2.85326 -0.806384 3.54713 4.9529 1.7768 0. -1
 -15 1 1 2 0 0 2.85326 0.806384 -3.23313 4.7331 1.7768 0. 1
</event>
<event>
 4 80 1 -1 -1 -1
 11 -1 0 0 0 0 0 0 5 5 0 0. 9.
 -11 -1 0 0 0 0 0 0 -4.3373 4.3373 0 0. 9.
 15 1 1 2 0 0 0.238709 -3.33686 3.04692 4.86138 1.7768 0. 1
 -15 1 1 2 0 0 -0.238709 3.33686 -2.38422 4.47592 1.7768 0. -1
</event>
<event>
 4 80 1 -1 -1 -1
 11 -1 0 0 0 0 0 0 5 5 0 0. 9.
 -11 -1 0 0 0 0 0 0 -4.59432 4.59432 0 0. 9.
 15 1 1 2 0 0 0.552973 2.51404 -3.4319 4.64347 1.7768 0. 1
 -15 1 1 2 0 0 -0.552973 -2.51404 3.83758 4.95085 1.7768 0. -1
</event>
<event>
 4 80 1 -1 -1 -1
 11 -1 0 0 0 0 0 0 5 5 0 0. 9.
 -11 -1 0 0 0 0 0 0 -4.99991 4.99991 0 0. 9.
 15 1 1 2 0 0 -3.77103 -1.03157 2.56071 4.99998 1.7768 0. 1
 -15 1 1 2 0 0 3.77103 1.03157 -2.56062 4.99993 1.7768 0. -1
</event>
<event>
 4 80 1 -1 -1 -1
 11 -1 0 0 0 0 0 0 4.99997 4.99997 0 0. 9.
 -11 -1 0 0 0 0 0 0 -4.99695 4.99695 0 0. 9.
 15 1 1 2 0 0 0.195379 -1.98507 4.22622 4.99974 1.7768 0. 1
 -15 1 1 2 0 0 -0.195379 1.98507 -4.2232 4.99718 1.7768 0. -1
</event>
<event>
 4 80 1 -1 -1 -1
 11 -1 0 0 0 0 0 0 4.99623 4.99623 0 0. 9.
 -11 -1 0 0 0 0 0 0 -5 5 0 0. 9.
 15 1 1 2 0 0 -2.10757 0.614961 4.12163 4.99656 1.7768 0. 1
 -15 1 1 2 0 0 2.10757 -0.614961 -4.1254 4.99967 1.7768 0. -1
</event>
<event>
 4 80 1 -1 -1 -1
 11 -1 0 0 0 0 0 0 5 5 0 0. 9.
 -11 -1 0 0 0 0 0 0 -3.3789 3.3789 0 0. 9.
 15 1 1 2 0 0 1.12131 2.62867 3.21599 4.65484 1.7768 0. -1
 -15 1 1 2 0 0 -1.12131 -2.62867 -1.59488 3.72406 1.7768 0. 1
</event>
<event>
 4 80 1 -1 -1 -1
 11 -1 0 0 0 0 0 0 4.99909 4.99909 0 0. 9.
 -11 -1 0 0 0 0 0 0 -4.99898 4.99898 0 0. 9.
 15 1 1 2 0 0 -2.24075 0.192182 -4.09565 4.99899 1.7768 0. 1
 -15 1 1 2 0 0 2.24075 -0.192182 4.09575 4.99908 1.7768 0. -1
</event>
<event>
 4 80 1 -1 -1 -1
 11 -1 0 0 0 0 0 0 4.35527 4.35527 0 0. 9.
 -11 -1 0 0 0 0 0 0 -5 5 0 0. 9.
 15 1 1 2 0 0 3.67844 0.666717 -2.48231 4.82649 1.7768 0. -1
 -15 1 1 2 0 0 -3.67844 -0.666717 1.83757 4.52878 1.7768 0. 1
</event>
<event>
 4 80 1 -1 -1 -1
 11 -1 0 0 0 0 0 0 0.991587 0.991587 0 0. 9.
 -11 -1 0 0 0 0 0 0 -5 5 0 0. 9.
 15 1 1 2 0 0 0.82404 -1.05713 -2.08549 3.05018 1.7768 0. 1
 -15 1 1 2 0 0 -0.82404 1.05713 -1.92292 2.94141 1.7768 0. -1
</event>
<event>
 4 80 1 -1 -1 -1
 11 -1 0 0 0 0 0 0 4.99999 4.99999 0 0. 9.
 -11 -1 0 0 0 0 0 0 -5 5 0 0. 9.
 15 1 1 2 0 0 -0.0555873 2.95468 -3.62064 5 1.7768 0. -1
 -15 1 1 2 0 0 0.0555873 -2.95468 3.62063 4.99999 1.7768 0. 1
</event>
<event>
 4 80 1 -1 -1 -1
 11 -1 0 0 0 0 0 0 5 5 0 0. 9.
 -11 -1 0 0 0 0 0 0 -4.99995 4.99995 0 0. 9.
 15 1 1 2 0 0 0.0119603 2.04276 -4.20343 4.99996 1.7768 0. 1
 -15 1 1 2 0 0 -0.0119603 -2.04276 4.20348 5 1.7768 0. -1
</event>
<event>
 4 80 1 -1 -1 -1
 11 -1 0 0 0 0 0 0 4.84974 4.84974 0 0. 9.
 -11 -1 0 0 0 0 0 0 -1.54363 1.54363 0 0. 9.
 15 1 1 2 0 0 -1.30081 1.31039 0.532893 2.61743 1.7768 0. 1
 -15 1 1 2 0 0 1.30081 -1.31039 2.77322 3.77594 1.7768 0. -1
</event>
<event>
 4 80 1 -1 -1 -1
 11 -1 0 0 0 0 0 0 4.99978 4.99978 0 0. 9.
 -11 -1 0 0 0 0 0 0 -4.99486 4.99486 0 0. 9.
 15 1 1 2 0 0 0.579565 2.32752 -4.00531 4.99535 1.7768 0. -1
 -15 1 1 2 0 0 -0.579565 -2.32752 4.01023 4.99929 1.7768 0. 1
</event>
<event>
 4 80 1 -1 -1 -1
 11 -1 0 0 0 0 0 0 5 5 0 0. 9.
 -11 -1 0 0 0 0 0 0 -5 5 0 0. 9.
 15 1 1 2 0 0 2.31035 0.409707 4.04187 5 1.7768 0. 1
 -15 1 1 2 0 0 -2.31035 -0.409707 -4.04187 5 1.7768 0. -1
</event>
<event>
 4 80 1 -1 -1 -1
 11 -1 0 0 0 0 0 0 4.15031 4.15031 0 0. 9.
 -11 -1 0 0 0 0 0 0 -4.97545 4.97545 0 0. 9.
 15 1 1 2 0 0 -3.91161 1.14239 -1.35782 4.64835 1.7768 0. 1
 -15 1 1 2 0 0 3.91161 -1.14239 0.532676 4.47741 1.7768 0. -1
</event>
<event>
 4 80 1 -1 -1 -1
 11 -1 0 0 0 0 0 0 3.49971 3.49971 0 0. 9.
 -11 -1 0 0 0 0 0 0 -4.99956 4.99956 0 0. 9.
 15 1 1 2 0 0 2.38201 -0.789584 -3.63095 4.75804 1.7768 0. -1
 -15 1 1 2 0 0 -2.38201 0.789584 2.13111 3.74123 1.7768 0. 1
</event>
<event>
 4 80 1 -1 -1 -1
 11 -1 0 0 0 0 0 0 5 5 0 0. 9.
 -11 -1 0 0 0 0 0 0 -5 5 0 0. 9.
 15 1 1 2 0 0 1.27062 -4.20694 -1.59041 5 1.7768 0. -1
 -15 1 1 2 0 0 -1.27062 4.20694 1.59041 5 1.7768 0. 1
</event>
<event>
 4 80 1 -1 -1 -1
 11 -1 0 0 0 0 0 0 4.98783 4.98783 0 0. 9.
 -11 -1 0 0 0 0 0 0 -5 5 0 0. 9.
 15 1 1 2 0 0 2.12159 3.88868 1.46306 4.99212 1.7768 0. -1
 -15 1 1 2 0 0 -2.12159 -3.88868 -1.47523 4.99571 1.7768 0. 1
</event>
<event>
 4 80 1 -1 -1 -1
 11 -1 0 0 0 0 0 0 1.40764 1.40764 0 0. 9.
 -11 -1 0 0 0 0 0 0 -5 5 0 0. 9.
 15 1 1 2 0 0 -0.52199 -1.87245 -1.41067 2.98769 1.7768 0. -1
 -15 1 1 2 0 0 0.52199 1.87245 -2.18169 3.41995 1.7768 0. 1
</event>
<event>
 4 80 1 -1 -1 -1
 11 -1 0 0 0 0 0 0 5 5 0 0. 9.
 -11 -1 0 0 0 0 0 0 -5 5 0 0. 9.
 15 1 1 2 0 0 0.73654 4.3758 -1.46703 5 1.7768 0. -1
 -15 1 1 2 0 0 -0.73654 -4.3758 1.46703 5 1.7768 0. 1
</event>
<event>
 4 80 1 -1 -1 -1
 11 -1 0 0 0 0 0 0 4.9875 4.9875 0 0. 9.
 -11 -1 0 0 0 0 0 0 -5 5 0 0. 9.
 15 1 1 2 0 0 -1.72539 1.41207 4.09361 4.98861 1.7768 0. 1
 -15 1 1 2 0 0 1.72539 -1.41207 -4.10611 4.99888 1.7768 0. -1
</event>
<event>
 4 80 1 -1 -1 -1
 11 -1 0 0 0 0 0 0 5 5 0 0. 9.
 -11 -1 0 0 0 0 0 0 -5 5 0 0. 9.
 15 1 1 2 0 0 -1.05103 4.23889 1.66415 5 1.7768 0. -1
 -15 1 1 2 0 0 1.05103 -4.23889 -1.66415 5 1.7768 0. 1
</event>
<event>
 4 80 1 -1 -1 -1
 11 -1 0 0 0 0 0 0 5 5 0 0. 9.
 -11 -1 0 0 0 0 0 0 -5 5 0 0. 9.
 15 1 1 2 0 0 -3.775 2.69156 0.589234 5 1.7768 0. -1
 -15 1 1 2 0 0 3.775 -2.69156 -0.589234 5 1.7768 0. 1
</event>
<event>
 4 80 1 -1 -1 -1
 11 -1 0 0 0 0 0 0 5 5 0 0. 9.
 -11 -1 0 0 0 0 0 0 -5 5 0 0. 9.
 15 1 1 2 0 0 -0.098549 4.61793 0.712265 5 1.7768 0. 1
 -15 1 1 2 0 0 0.098549 -4.61793 -0.712264 5 1.7768 0. -1
</event>
<event>
 4 80 1 -1 -1 -1
 11 -1 0 0 0 0 0 0 5 5 0 0. 9.
 -11 -1 0 0 0 0 0 0 -4.55228 4.55228 0 0. 9.
 15 1 1 2 0 0 -1.53058 -0.314743 4.37111 4.97052 1.7768 0. 1
 -15 1 1 2 0 0 1.53058 0.314743 -3.92339 4.58175 1.7768 0. -1
</event>
<event>
 4 80 1 -1 -1 -1
 11 -1 0 0 0 0 0 0 3.99613 3.99613 0 0. 9.
 -11 -1 0 0 0 0 0 0 -4.77134 4.77134 0 0. 9.
 15 1 1 2 0 0 2.44109 3.15004 -0.554042 4.39845 1.7768 0. -1
 -15 1 1 2 0 0 -2.44109 -3.15004 -0.221166 4.36902 1.7768 0. 1
</event>
<event>
 4 80 1 -1 -1 -1
 11 -1 0 0 0 0 0 0 5 5 0 0. 9.
 -11 -1 0 0 0 0 0 0 -4.98996 4.98996 0 0. 9.
 15 1 1 2 0 0 -1.93762 -3.48916 -2.41645 4.99255 1.7768 0. 1
 -15 1 1 2 0 0 1.93762 3.48916 2.42648 4.99741 1.7768 0. -1
</event>
<event>
 4 80 1 -1 -1 -1
 11 -1 0 0 0 0 0 0 5 5 0 0. 9.
 -11 -1 0 0 0 0 0 0 -4.95454 4.95454 0 0. 9.
 15 1 1 2 0 0 -3.93634 1.13981 2.21844 4.9873 1.7768 0. -1
 -15 1 1 2 0 0 3.93634 -1.13981 -2.17298 4.96725 1.7768 0. 1
</event>
<event>
 4 80 1 -1 -1 -1
 11 -1 0 0 0 0 0 0 5 5 0 0. 9.
 -11 -1 0 0 0 0 0 0 -4.93691 4.93691 0 0. 9.
 15 1 1 2 0 0 1.96627 0.745107 -4.1044 4.94219 1.7768 0. 1
 -15 1 1 2 0 0 -1.96627 -0.745107 4.1675 4.99471 1.7768 0. -1
</event>
<event>
 4 80 1 -1 -1 -1
 11 -1 0 0 0 0 0 0 4.99966 4.99966 0 0. 9.
 -11 -1 0 0 0 0 0 0 -5 5 0 0. 9.
 15 1 1 2 0 0 -3.63978 2.92323 0.217212 4.99982 1.7768 0. -1
 -15 1 1 2 0 0 3.63978 -2.92323 -0.217551 4.99984 1.7768 0. 1
</event>
<event>
 4 80 1 -1 -1 -1
 11 -1 0 0 0 0 0 0 5 5 0 0. 9.
 -11 -1 0 0 0 0 0 0 -5 5 0 0. 9.
 15 1 1 2 0 0 -2.01665 4.17456 0.590324 5 1.7768 0. -1
 -15 1 1 2 0 0 2.01665 -4.17456 -0.590325 5 1.7768 0. 1
</event>
<event>
 4 80 1 -1 -1 -1
 11 -1 0 0 0 0 0 0 5 5 0 0. 9.
 -11 -1 0 0 0 0 0 0 -5 5 0 0. 9.
 15 1 1 2 0 0 -2.42931 -3.89743 0.866484 5 1.7768 0. 1
 -15 1 1 2 0 0 2.42931 3.89743 -0.866484 5 1.7768 0. -1
</event>
<event>
 4 80 1 -1 -1 -1
 11 -1 0 0 0 0 0 0 5 5 0 0. 9.
 -11 -1 0 0 0 0 0 0 -4.66109 4.66109 0 0. 9.
 15 1 1 2 0 0 -0.409941 -0.607111 4.60062 4.98599 1.7768 0. -1
 -15 1 1 2 0 0 0.409941 0.607111 -4.26171 4.6751 1.7768 0. 1
</event>
<event>
 4 80 1 -1 -1 -1
 11 -1 0 0 0 0 0 0 5 5 0 0. 9.
 -11 -1 0 0 0 0 0 0 -4.99756 4.99756 0 0. 9.
 15 1 1 2 0 0 -0.953984 -0.003692 -4.57262 4.99766 1.7768 0. 1
 -15 1 1 2 0 0 0.953984 0.003692 4.57506 4.9999 1.7768 0. -1
</event>
<event>
 4 80 1 -1 -1 -1
 11 -1 0 0 0 0 0 0 1.95564 1.95564 0 0. 9.
 -11 -1 0 0 0 0 0 0 -5 5 0 0. 9.
 15 1 1 2 0 0 0.242155 2.55633 -1.70489 3.55779 1.7768 0. -1
 -15 1 1 2 0 0 -0.242155 -2.55633 -1.33948 3.39785 1.7768 0. 1
</event>
<event>
 4 80 1 -1 -1 -1
 11 -1 0 0 0 0 0 0 4.99377 4.99377 0 0. 9.
 -11 -1 0 0 0 0 0 0 -2.30437 2.30437 0 0. 9.
 15 1 1 2 0 0 -1.26833 2.26235 -0.0256563 3.14408 1.7768 0. -1
 -15 1 1 2 0 0 1.26833 -2.26235 2.71506 4.15406 1.7768 0. 1
</event>
<event>
 4 80 1 -1 -1 -1
 11 -1 0 0 0 0 0 0 5 5 0 0. 9.
 -11 -1 0 0 0 0 0 0 -5 5 0 0. 9.
 15 1 1 2 0 0 -1.68366 -2.00203 -3.87291 5 1.7768 0. 1
 -15 1 1 2 0 0 1.68366 2.00203 3.87291 5 1.7768 0. -1
</event>
<event>
 4 80 1 -1 -1 -1
 11 -1 0 0 0 0 0 0 4.99999 4.99999 0 0. 9.
 -11 -1 0 0 0 0 0 0 -4.99999 4.99999 0 0. 9.
 15 1 1 2 0 0 1.57478 -2.99513 -3.22358 4.99999 1.7768 0. -1
 -15 1 1 2 0 0 -1.57478 2.99513 3.22358 4.99999 1.7768 0. 1
</event>
<event>
 4 80 1 -1 -1 -1
 11 -1 0 0 0 0 0 0 5 5 0 0. 9.
 -11 -1 0 0 0 0 0 0 -4.5185 4.5185 0 0. 9.
 15 1 1 2 0 0 -2.73255 -1.12564 -3.03466 4.59356 1.7768 0. 1
 -15 1 1 2 0 0 2.73255 1.12564 3.51616 4.92494 1.7768 0. -1
</event>
<event>
 4 80 1 -1 -1 -1
 11 -1 0 0 0 0 0 0 5 5 0 0. 9.
 -11 -1 0 0 0 0 0 0 -5 5 0 0. 9.
 15 1 1 2 0 0 -2.79428 3.23393 -1.89102 5 1.7768 0. -1
 -15 1 1 2 0 0 2.79428 -3.23393 1.89102 5 1.7768 0. 1
</event>
<event>
 4 80 1 -1 -1 -1
 11 -1 0 0 0 0 0 0 4.96086 4.96086 0 0. 9.
 -11 -1 0 0 0 0 0 0 -4.99877 4.99877 0 0. 9.
 15 1 1 2 0 0 -0.468596 2.44668 3.90977 4.96486 1.7768 0. 1
 -15 1 1 2 0 0 0.468596 -2.44668 -3.94769 4.99477 1.7768 0. -1
</event>
<event>
 4 80 1 -1 -1 -1
 11 -1 0 0 0 0 0 0 1.14455 1.14455 0 0. 9.
 -11 -1 0 0 0 0 0 0 -5 5 0 0. 9.
 15 1 1 2 0 0 1.15486 0.0738452 -3.34967 3.96448 1.7768 0. 1
 -15 1 1 2 0 0 -1.15486 -0.0738452 -0.505782 2.18007 1.7768 0. -1
</event>
<event>
 4 80 1 -1 -1 -1
 11 -1 0 0 0 0 0 0 5 5 0 0. 9.
 -11 -1 0 0 0 0 0 0 -4.99202 4.99202 0 0. 9.
 15 1 1 2 0 0 -1.07504 -0.0484299 -4.53961 4.99238 1.7768 0. -1
 -15 1 1 2 0 0 1.07504 0.0484299 4.54759 4.99964 1.7768 0. 1
</event>
<event>
 4 80 1 -1 -1 -1
 11 -1 0 0 0 0 0 0 5 5 0 0. 9.
 -11 -1 0 0 0 0 0 0 -5 5 0 0. 9.
 15 1 1 2 0 0 -1.93737 1.92056 3.79478 5 1.7768 0. 1
 -15 1 1 2 0 0 1.93737 -1.92056 -3.79478 5 1.7768 0. -1
</event>
<event>
 4 80 1 -1 -1 -1
 11 -1 0 0 0 0 0 0 5 5 0 0. 9.
 -11 -1 0 0 0 0 0 0 -5 5 0 0. 9.
 15 1 1 2 0 0 -3.13224 -0.572573 -3.42104 5 1.7768 0. 1
 -15 1 1 2 0 0 3.13224 0.572573 3.42104 5 1.7768 0. -1
</event>
<event>
 4 80 1 -1 -1 -1
 11 -1 0 0 0 0 0 0 5 5 0 0. 9.
 -11 -1 0 0 0 0 0 0 -5 5 0 0. 9.
 15 1 1 2 0 0 -3.35365 2.394 2.20546 5 1.7768 0. 1
 -15 1 1 2 0 0 3.35365 -2.394 -2.20546 5 1.7768 0. -1
</event>
<event>
 4 80 1 -1 -1 -1
 11 -1 0 0 0 0 0 0 5 5 0 0. 9.
 -11 -1 0 0 0 0 0 0 -4.9917 4.9917 0 0. 9.
 15 1 1 2 0 0 -0.534969 -2.69105 -3.77379 4.99271 1.7768 0. 1
 -15 1 1 2 0 0 0.534969 2.69105 3.78209 4.99899 1.7768 0. -1
</event>
<event>
 4 80 1 -1 -1 -1
 11 -1 0 0 0 0 0 0 4.09637 4.09637 0 0. 9.
 -11 -1 0 0 0 0 0 0 -1.70814 1.70814 0 0. 9.
 15 1 1 2 0 0 0.858001 1.49098 0.164741 2.47872 1.7768 0. 1
 -15 1 1 2 0 0 -0.858001 -1.49098 2.22349 3.32578 1.7768 0. -1
</event>
<event>
 4 80 1 -1 -1 -1
 11 -1 0 0 0 0 0 0 5 5 0 0. 9.
 -11 -1 0 0 0 0 0 0 -5 5 0 0. 9.
 15 1 1 2 0 0 -3.3794 1.39642 2.91066 5 1.7768 0. 1
 -15 1 1 2 0 0 3.3794 -1.39642 -2.91066 5 1.7768 0. -1
</event>
<event>
 4 80 1 -1 -1 -1
 11 -1 0 0 0 0 0 0 5 5 0 0. 9.
 -11 -1 0 0 0 0 0 0 -5 5 0 0. 9.
 15 1 1 2 0 0 0.0328336 -4.37252 -1.64994 5 1.7768 0. 1
 -15 1 1 2 0 0 -0.0328336 4.37252 1.64994 5 1.7768 0. -1
</event>
<event>
 4 80 1 -1 -1 -1
 11 -1 0 0 0 0 0 0 5 5 0 0. 9.
 -11 -1 0 0 0 0 0 0 -5 5 0 0. 9.
 15 1 1 2 0 0 -1.66329 2.32105 3.69979 5 1.7768 0. 1
 -15 1 1 2 0 0 1.66329 -2.32105 -3.69979 5 1.7768 0. -1
</event>
<event>
 4 80 1 -1 -1 -1
 11 -1 0 0 0 0 0 0 5 5 0 0. 9.
 -11 -1 0 0 0 0 0 0 -4.95986 4.95986 0 0. 9.
 15 1 1 2 0 0 -1.70179 0.602181 -4.26749 4.96265 1.7768 0. -1
 -15 1 1 2 0 0 1.70179 -0.602181 4.30763 4.99721 1.7768 0. 1
</event>
<event>
 4 80 1 -1 -1 -1
 11 -1 0 0 0 0 0 0 4.99998 4.99998 0 0. 9.
 -11 -1 0 0 0 0 0 0 -5 5 0 0. 9.
 15 1 1 2 0 0 -2.64989 -1.67128 -3.46802 5 1.7768 0. -1
 -15 1 1 2 0 0 2.64989 1.67128 3.46799 4.99998 1.7768 0. 1
</event>
<event>
 4 80 1 -1 -1 -1
 11 -1 0 0 0 0 0 0 5 5 0 0. 9.
 -11 -1 0 0 0 0 0 0 -5 5 0 0. 9.
 15 1 1 2 0 0 0.125486 0.0541044 4.67157 5 1.7768 0. 1
 -15 1 1 2 0 0 -0.125486 -0.0541044 -4.67157 5 1.7768 0. -1
</event>
<event>
 4 80 1 -1 -1 -1
 11 -1 0 0 0 0 0 0 5 5 0 0. 9.
 -11 -1 0 0 0 0 0 0 -5 5 0 0. 9.
 15 1 1 2 0 0 0.130962 3.85613 2.63731 5 1.7768 0. -1
 -15 1 1 2 0 0 -0.130962 -3.85613 -2.63731 5 1.7768 0. 1
</event>
<event>
 4 80 1 -1 -1 -1
 11 -1 0 0 0 0 0 0 5 5 0 0. 9.
 -11 -1 0 0 0 0 0 0 -5 5 0 0. 9.
 15 1 1 2 0 0 -0.277531 -2.5225 3.92457 5 1.7768 0. -1
 -15 1 1 2 0 0 0.277531 2.5225 -3.92457 5 1.7768 0. 1
</event>
<event>
 4 80 1 -1 -1 -1
 11 -1 0 0 0 0 0 0 5 5 0 0. 9.
 -11 -1 0 0 0 0 0 0 -5 5 0 0. 9.
 15 1 1 2 0 0 -1.93998 -4.21511 0.55822 5 1.7768 0. -1
 -15 1 1 2 0 0 1.93998 4.21511 -0.558219 5 1.7768 0. 1
</event>
<event>
 4 80 1 -1 -1 -1
 11 -1 0 0 0 0 0 0 4.35713 4.35713 0 0. 9.
 -11 -1 0 0 0 0 0 0 -3.26534 3.26534 0 0. 9.
 15 1 1 2 0 0 -1.03138 -0.461343 3.70791 4.26414 1.7768 0. -1
 -15 1 1 2 0 0 1.03138 0.461343 -2.61611 3.35833 1.7768 0. 1
</event>
<event>
 4 80 1 -1 -1 -1
 11 -1 0 0 0 0 0 0 5 5 0 0. 9.
 -11 -1 0 0 0 0 0 0 -5 5 0 0. 9.
 15 1 1 2 0 0 -1.13761 3.09131 3.3154 5 1.7768 0. -1
 -15 1 1 2 0 0 1.13761 -3.09131 -3.3154 5 1.7768 0. 1
</event>
<event>
 4 80 1 -1 -1 -1
 11 -1 0 0 0 0 0 0 4.99997 4.99997 0 0. 9.
 -11 -1 0 0 0 0 0 0 -4.26592 4.26592 0 0. 9.
 15 1 1 2 0 0 2.24127 1.79024 -2.79625 4.38235 1.7768 0. 1
 -15 1 1 2 0 0 -2.24127 -1.79024 3.53029 4.88354 1.7768 0. -1
</event>
<event>
 4 80 1 -1 -1 -1
 11 -1 0 0 0 0 0 0 5 5 0 0. 9.
 -11 -1 0 0 0 0 0 0 -2.97209 2.97209 0 0. 9.
 15 1 1 2 0 0 -1.73038 -0.779459 -1.92908 3.23741 1.7768 0. 1
 -15 1 1 2 0 0 1.73038 0.779459 3.95698 4.73468 1.7768 0. -1
</event>
<event>
 4 80 1 -1 -1 -1
 11 -1 0 0 0 0 0 0 5 5 0 0. 9.
 -11 -1 0 0 0 0 0 0 -4.99514 4.99514 0 0. 9.
 15 1 1 2 0 0 -1.59122 2.45869 3.64123 4.99934 1.7768 0. 1
 -15 1 1 2 0 0 1.59122 -2.45869 -3.63637 4.9958 1.7768 0. -1
</event>
<event>
 4 80 1 -1 -1 -1
 11 -1 0 0 0 0 0 0 4.99929 4.99929 0 0. 9.
 -11 -1 0 0 0 0 0 0 -4.96366 4.96366 0 0. 9.
 15 1 1 2 0 0 -2.44374 3.23958 -2.26042 4.97333 1.7768 0. -1
 -15 1 1 2 0 0 2.44374 -3.23958 2.29606 4.98962 1.7768 0. 1
</event>
<event>
 4 80 1 -1 -1 -1
 11 -1 0 0 0 0 0 0 4.9999 4.9999 0 0. 9.
 -11 -1 0 0 0 0 0 0 -5 5 0 0. 9.
 15 1 1 2 0 0 -4.51589 1.06778 -0.555381 4.99996 1.7768 0. 1
 -15 1 1 2 0 0 4.51589 -1.06778 0.55528 4.99994 1.7768 0. -1
</event>
<event>
 4 80 1 -1 -1 -1
 11 -1 0 0 0 0 0 0 4.99579 4.99579 0 0. 9.
 -11 -1 0 0 0 0 0 0 -4.99996 4.99996 0 0. 9.
 15 1 1 2 0 0 -0.996644 4.30197 1.52131 4.99724 1.7768 0. -1
 -15 1 1 2 0 0 0.996644 -4.30197 -1.52548 4.99851 1.7768 0. 1
</event>
<event>
 4 80 1 -1 -1 -1
 11 -1 0 0 0 0 0 0 5 5 0 0. 9.
 -11 -1 0 0 0 0 0 0 -4.99883 4.99883 0 0. 9.
 15 1 1 2 0 0 0.201741 -3.71127 2.83294 4.99975 1.7768 0. -1
 -15 1 1 2 0 0 -0.201741 3.71127 -2.83176 4.99908 1.7768 0. 1
</event>
<event>
 4 80 1 -1 -1 -1
 11 -1 0 0 0 0 0 0 5 5 0 0. 9.
 -11 -1 0 0 0 0 0 0 -5 5 0 0. 9.
 15 1 1 2 0 0 1.09503 3.64699 -2.70972 5 1.7768 0. 1
 -15 1 1 2 0 0 -1.09503 -3.64699 2.70972 5 1.7768 0. -1
</event>
<event>
 4 80 1 -1 -1 -1
 11 -1 0 0 0 0 0 0 5 5 0 0. 9.
 -11 -1 0 0 0 0 0 0 -5 5 0 0. 9.
 15 1 1 2 0 0 2.255 -0.40252 -4.07373 5 1.7768 0. -1
 -15 1 1 2 0 0 -2.255 0.40252 4.07373 5 1.7768 0. 1
</event>
<event>
 4 80 1 -1 -1 -1
 11 -1 0 0 0 0 0 0 5 5 0 0. 9.
 -11 -1 0 0 0 0 0 0 -5 5 0 0. 9.
 15 1 1 2 0 0 -0.0833928 -3.78589 2.73905 5 1.7768 0. -1
 -15 1 1 2 0 0 0.0833928 3.78589 -2.73905 5 1.7768 0. 1
</event>
<event>
 4 80 1 -1 -1 -1
 11 -1 0 0 0 0 0 0 3.97151 3.97151 0 0. 9.
 -11 -1 0 0 0 0 0 0 -4.99968 4.99968 0 0. 9.
 15 1 1 2 0 0 1.65368 2.49487 2.28636 4.16464 1.7768 0. 1
 -15 1 1 2 0 0 -1.65368 -2.49487 -3.31453 4.80654 1.7768 0. -1
</event>
<event>
 4 80 1 -1 -1 -1
 11 -1 0 0 0 0 0 0 4.70353 4.70353 0 0. 9.
 -11 -1 0 0 0 0 0 0 -4.9971 4.9971 0 0. 9.
 15 1 1 2 0 0 -2.17614 -1.98791 -3.56287 4.9537 1.7768 0. 1
 -15 1 1 2 0 0 2.17614 1.98791 3.2693 4.74693 1.7768 0. -1
</event>
<event>
 4 80 1 -1 -1 -1
 11 -1 0 0 0 0 0 0 5 5 0 0. 9.
 -11 -1 0 0 0 0 0 0 -5 5 0 0. 9.
 15 1 1 2 0 0 1.33414 0.6005 -4.43866 5 1.7768 0. -1
 -15 1 1 2 0 0 -1.33414 -0.6005 4.43866 5 1.7768 0. 1
</event>
<event>
 4 80 1 -1 -1 -1
 11 -1 0 0 0 0 0 0 5 5 0 0. 9.
 -11 -1 0 0 0 0 0 0 -5 5 0 0. 9.
 15 1 1 2 0 0 -4.62055 -0.296115 0.636455 5 1.7768 0. -1
 -15 1 1 2 0 0 4.62055 0.296115 -0.636456 5 1.7768 0. 1
</event>
<event>
 4 80 1 -1 -1 -1
 11 -1 0 0 0 0 0 0 4.87493 4.87493 0 0. 9.
 -11 -1 0 0 0 0 0 0 -5 5 0 0. 9.
 15 1 1 2 0 0 -3.73459 -1.24264 2.33047 4.90716 1.7768 0. -1
 -15 1 1 2 0 0 3.73459 1.24264 -2.45554 4.96777 1.7768 0. 1
</event>
<event>
 4 80 1 -1 -1 -1
 11 -1 0 0 0 0 0 0 4.91656 4.91656 0 0. 9.
 -11 -1 0 0 0 0 0 0 -5 5 0 0. 9.
 15 1 1 2 0 0 2.8659 -0.74161 -3.60018 4.98822 1.7768 0. 1
 -15 1 1 2 0 0 -2.8659 0.74161 3.51674 4.92834 1.7768 0. -1
</event>
<event>
 4 80 1 -1 -1 -1
 11 -1 0 0 0 0 0 0 5 5 0 0. 9.
 -11 -1 0 0 0 0 0 0 -4.99996 4.99996 0 0. 9.
 15 1 1 2 0 0 3.15778 -3.4031 0.537989 4.99998 1.7768 0. 1
 -15 1 1 2 0 0 -3.15778 3.4031 -0.537953 4.99998 1.7768 0. -1
</event>
<event>
 4 80 1 -1 -1 -1
 11 -1 0 0 0 0 0 0 4.99752 4.99752 0 0. 9.
 -11 -1 0 0 0 0 0 0 -4.99848 4.99848 0 0. 9.
 15 1 1 2 0 0 0.156299 -0.421807 -4.65021 4.99845 1.7768 0. -1
 -15 1 1 2 0 0 -0.156299 0.421807 4.64924 4.99755 1.7768 0. 1
</event>
<event>
 4 80 1 -1 -1 -1
 11 -1 0 0 0 0 0 0 5 5 0 0. 9.
 -11 -1 0 0 0 0 0 0 -5 5 0 0. 9.
 15 1 1 2 0 0 0.664668 -4.62019 0.232998 5 1.7768 0. -1
 -15 1 1 2 0 0 -0.664668 4.62019 -0.232998 5 1.7768 0. 1
</event>
<event>
 4 80 1 -1 -1 -1
 11 -1 0 0 0 0 0 0 4.25825 4.25825 0 0. 9.
 -11 -1 0 0 0 0 0 0 -5 5 0 0. 9.
 15 1 1 2 0 0 3.12633 2.27077 -2.1664 4.77298 1.7768 0. 1
 -15 1 1 2 0 0 -3.12633 -2.27077 1.42464 4.48527 1.7768 0. -1
</event>
<event>
 4 80 1 -1 -1 -1
 11 -1 0 0 0 0 0 0 5 5 0 0. 9.
 -11 -1 0 0 0 0 0 0 -5 5 0 0. 9.
 15 1 1 2 0 0 -0.682417 3.91499 -2.45956 5 1.7768 0. 1
 -15 1 1 2 0 0 0.682417 -3.91499 2.45956 5 1.7768 0. -1
</event>
<event>
 4 80 1 -1 -1 -1
 11 -1 0 0 0 0 0 0 4.89972 4.89972 0 0. 9.
 -11 -1 0 0 0 0 0 0 -5 5 0 0. 9.
 15 1 1 2 0 0 -4.54178 0.0666918 0.791727 4.94133 1.7768 0. 1
 -15 1 1 2 0 0 4.54178 -0.0666918 -0.892005 4.95839 1.7768 0. -1
</event>
<event>
 4 80 1 -1 -1 -1
 11 -1 0 0 0 0 0 0 5 5 0 0. 9.
 -11 -1 0 0 0 0 0 0 -4.9999 4.9999 0 0. 9.
 15 1 1 2 0 0 -2.4125 -3.90894 0.861359 4.99996 1.7768 0. -1
 -15 1 1 2 0 0 2.4125 3.90894 -0.861261 4.99994 1.7768 0. 1
</event>
<event>
 4 80 1 -1 -1 -1
 11 -1 0 0 0 0 0 0 5 5 0 0. 9.
 -11 -1 0 0 0 0 0 0 -4.99149 4.99149 0 0. 9.
 15 1 1 2 0 0 -0.396022 1.81806 -4.27798 4.9921 1.7768 0. -1
 -15 1 1 2 0 0 0.396022 -1.81806 4.28649 4.99939 1.7768 0. 1
</event>
<event>
 4 80 1 -1 -1 -1
 11 -1 0 0 0 0 0 0 4.90293 4.90293 0 0. 9.
 -11 -1 0 0 0 0 0 0 -5 5 0 0. 9.
 15 1 1 2 0 0 -0.750114 -2.39404 3.83274 4.91342 1.7768 0. -1
 -15 1 1 2 0 0 0.750114 2.39404 -3.92981 4.98951 1.7768 0. 1
</event>
<event>
 4 80 1 -1 -1 -1
 11 -1 0 0 0 0 0 0 4.72101 4.72101 0 0. 9.
 -11 -1 0 0 0 0 0 0 -5 5 0 0. 9.
 15 1 1 2 0 0 -1.3512 2.74128 3.19459 4.76482 1.7768 0. 1
 -15 1 1 2 0 0 1.3512 -2.74128 -3.47358 4.95619 1.7768 0. -1
</event>
<event>
 4 80 1 -1 -1 -1
 11 -1 0 0 0 0 0 0 5 5 0 0. 9.
 -11 -1 0 0 0 0 0 0 -5 5 0 0. 9.
 15 1 1 2 0 0 3.77503 2.45551 1.24974 5 1.7768 0. 1
 -15 1 1 2 0 0 -3.77503 -2.45551 -1.24974 5 1.7768 0. -1
</event>
<event>
 4 80 1 -1 -1 -1
 11 -1 0 0 0 0 0 0 4.84454 4.84454 0 0. 9.
 -11 -1 0 0 0 0 0 0 -1.69392 1.69392 0 0. 9.
 15 1 1 2 0 0 1.489 1.45373 2.54239 3.73523 1.7768 0. 1
 -15 1 1 2 0 0 -1.489 -1.45373 0.608225 2.80323 1.7768 0. -1
</event>
<event>
 4 80 1 -1 -1 -1
 11 -1 0 0 0 0 0 0 5 5 0 0. 9.
 -11 -1 0 0 0 0 0 0 -4.99999 4.99999 0 0. 9.
 15 1 1 2 0 0 -2.77431 0.0709592 -3.76037 4.99999 1.7768 0. 1
 -15 1 1 2 0 0 2.77431 -0.0709592 3.76038 5 1.7768 0. -1
</event>
<event>
 4 80 1 -1 -1 -1
 11 -1 0 0 0 0 0 0 2.54145 2.54145 0 0. 9.
 -11 -1 0 0 0 0 0 0 -4.98063 4.98063 0 0. 9.
 15 1 1 2 0 0 -1.81455 -0.780945 1.28153 2.95 1.7768 0. -1
 -15 1 1 2 0 0 1.81455 0.780945 -3.72071 4.57208 1.7768 0. 1
</event>
<event>
 4 80 1 -1 -1 -1
 11 -1 0 0 0 0 0 0 5 5 0 0. 9.
 -11 -1 0 0 0 0 0 0 -5 5 0 0. 9.
 15 1 1 2 0 0 4.43552 0.731998 -1.27774 5 1.7768 0. -1
 -15 1 1 2 0 0 -4.43552 -0.731998 1.27774 5 1.7768 0. 1
</event>
<event>
 4 80 1 -1 -1 -1
 11 -1 0 0 0 0 0 0 5 5 0 0. 9.
 -11 -1 0 0 0 0 0 0 -5 5 0 0. 9.
 15 1 1 2 0 0 3.79531 -2.2286 1.57202 5 1.7768 0. 1
 -15 1 1 2 0 0 -3.79531 2.2286 -1.57202 5 1.7768 0. -1
</event>
<event>
 4 80 1 -1 -1 -1
 11 -1 0 0 0 0 0 0 4.84761 4.84761 0 0. 9.
 -11 -1 0 0 0 0 0 0 -5 5 0 0. 9.
 15 1 1 2 0 0 -1.8564 2.72061 -3.27539 4.97331 1.7768 0. 1
 -15 1 1 2 0 0 1.8564 -2.72061 3.12301 4.8743 1.7768 0. -1
</event>
<event>
 4 80 1 -1 -1 -1
 11 -1 0 0 0 0 0 0 5 5 0 0. 9.
 -11 -1 0 0 0 0 0 0 -5 5 0 0. 9.
 15 1 1 2 0 0 -4.27703 -1.62922 -0.946026 5 1.7768 0. -1
 -15 1 1 2 0 0 4.27703 1.62922 0.946026 5 1.7768 0. 1
</event>
<event>
 4 80 1 -1 -1 -1
 11 -1 0 0 0 0 0 0 5 5 0 0. 9.
 -11 -1 0 0 0 0 0 0 -4.19183 4.19183 0 0. 9.
 15 1 1 2 0 0 1.65745 -3.2893 2.46994 4.77755 1.7768 0. 1
 -15 1 1 2 0 0 -1.65745 3.2893 -1.66177 4.41428 1.7768 0. -1
</event>
<event>
 4 80 1 -1 -1 -1
 11 -1 0 0 0 0 0 0 4.9869 4.9869 0 0. 9.
 -11 -1 0 0 0 0 0 0 -5 5 0 0. 9.
 15 1 1 2 0 0 1.11718 -2.45975 -3.81159 4.99844 1.7768 0. 1
 -15 1 1 2 0 0 -1.11718 2.45975 3.7985 4.98846 1.7768 0. -1
</event>
<event>
 4 80 1 -1 -1 -1
 11 -1 0 0 0 0 0 0 4.99709 4.99709 0 0. 9.
 -11 -1 0 0 0 0 0 0 -4.99435 4.99435 0 0. 9.
 15 1 1 2 0 0 -2.85999 1.82319 3.21009 4.9966 1.7768 0. -1
 -15 1 1 2 0 0 2.85999 -1.82319 -3.20735 4.99484 1.7768 0. 1
</event>
<event>
 4 80 1 -1 -1 -1
 11 -1 0 0 0 0 0 0 4.70268 4.70268 0 0. 9.
 -11 -1 0 0 0 0 0 0 -2.84423 2.84423 0 0. 9.
 15 1 1 2 0 0 0.113683 1.61762 -1.91297 3.07356 1.7768 0. 1
 -15 1 1 2 0 0 -0.113683 -1.61762 3.77141 4.47335 1.7768 0. -1
</event>
<event>
 4 80 1 -1 -1 -1
 11 -1 0 0 0 0 0 0 1.38576 1.38576 0 0. 9.
 -11 -1 0 0 0 0 0 0 -3.3912 3.3912 0 0. 9.
 15 1 1 2 0 0 -0.392681 0.412172 0.213041 1.87808 1.7768 0. -1
 -15 1 1 2 0 0 0.392681 -0.412172 -2.21848 2.89887 1.7768 0. 1
</event>
<event>
 4 80 1 -1 -1 -1
 11 -1 0 0 0 0 0 0 5 5 0 0. 9.
 -11 -1 0 0 0 0 0 0 -5 5 0 0. 9.
 15 1 1 2 0 0 -4.33353 1.3822 -1.07347 5 1.7768 0. 1
 -15 1 1 2 0 0 4.33353 -1.3822 1.07347 5 1.7768 0. -1
</event>
<event>
 4 80 1 -1 -1 -1
 11 -1 0 0 0 0 0 0 5 5 0 0. 9.
 -11 -1 0 0 0 0 0 0 -4.91225 4.91225 0 0. 9.
 15 1 1 2 0 0 -2.58205 0.0911303 -3.79401 4.92215 1.7768 0. 1
 -15 1 1 2 0 0 2.58205 -0.0911303 3.88176 4.9901 1.7768 0. -1
</event>
<event>
 4 80 1 -1 -1 -1
 11 -1 0 0 0 0 0 0 4.9755 4.9755 0 0. 9.
 -11 -1 0 0 0 0 0 0 -4.67998 4.67998 0 0. 9.
 15 1 1 2 0 0 2.96458 -1.39169 3.21546 4.92163 1.7768 0. -1
 -15 1 1 2 0 0 -2.96458 1.39169 -2.91994 4.73384 1.7768 0. 1
</event>
<event>
 4 80 1 -1 -1 -1
 11 -1 0 0 0 0 0 0 4.99998 4.99998 0 0. 9.
 -11 -1 0 0 0 0 0 0 -5 5 0 0. 9.
 15 1 1 2 0 0 0.169901 0.185197 -4.66681 5 1.7768 0. 1
 -15 1 1 2 0 0 -0.169901 -0.185197 4.66679 4.99998 1.7768 0. -1
</event>
<event>
 4 80 1 -1 -1 -1
 11 -1 0 0 0 0 0 0 5 5 0 0. 9.
 -11 -1 0 0 0 0 0 0 -4.9994 4.9994 0 0. 9.
 15 1 1 2 0 0 -1.71307 1.75591 -3.97732 4.99946 1.7768 0. 1
 -15 1 1 2 0 0 1.71307 -1.75591 3.97792 4.99994 1.7768 0. -1
</event>
<event>
 4 80 1 -1 -1 -1
 11 -1 0 0 0 0 0 0 4.99998 4.99998 0 0. 9.
 -11 -1 0 0 0 0 0 0 -5 5 0 0. 9.
 15 1 1 2 0 0 -1.94133 -3.82124 1.86319 4.99999 1.7768 0. -1
 -15 1 1 2 0 0 1.94133 3.82124 -1.86321 4.99999 1.7768 0. 1
</event>
<event>
 4 80 1 -1 -1 -1
 11 -1 0 0 0 0 0 0 5 5 0 0. 9.
 -11 -1 0 0 0 0 0 0 -5 5 0 0. 9.
 15 1 1 2 0 0 -4.26292 -1.79764 0.662031 5 1.7768 0. 1
 -15 1 1 2 0 0 4.26292 1.79764 -0.662031 5 1.7768 0. -1
</event>
<event>
 4 80 1 -1 -1 -1
 11 -1 0 0 0 0 0 0 5 5 0 0. 9.
 -11 -1 0 0 0 0 0 0 -4.99862 4.99862 0 0. 9.
 15 1 1 2 0 0 -2.26126 0.617484 4.04306 4.99987 1.7768 0. 1
 -15 1 1 2 0 0 2.26126 -0.617484 -4.04169 4.99875 1.7768 0. -1
</event>
<event>
 4 80 1 -1 -1 -1
 11 -1 0 0 0 0 0 0 4.99985 4.99985 0 0. 9.
 -11 -1 0 0 0 0 0 0 -5 5 0 0. 9.
 15 1 1 2 0 0 -0.155209 3.76676 -2.76213 4.99997 1.7768 0. -1
 -15 1 1 2 0 0 0.155209 -3.76676 2.76198 4.99988 1.7768 0. 1
</event>
<event>
 4 80 1 -1 -1 -1
 11 -1 0 0 0 0 0 0 1.30555 1.30555 0 0. 9.
 -11 -1 0 0 0 0 0 0 -5 5 0 0. 9.
 15 1 1 2 0 0 0.465045 -0.978808 -3.67573 4.2241 1.7768 0. 1
 -15 1 1 2 0 0 -0.465045 0.978808 -0.0187271 2.08144 1.7768 0. -1
</event>
<event>
 4 80 1 -1 -1 -1
 11 -1 0 0 0 0 0 0 5 5 0 0. 9.
 -11 -1 0 0 0 0 0 0 -5 5 0 0. 9.
 15 1 1 2 0 0 -0.526801 1.52779 4.38527 5 1.7768 0. 1
 -15 1 1 2 0 0 0.526801 -1.52779 -4.38527 5 1.7768 0. -1
</event>
<event>
 4 80 1 -1 -1 -1
 11 -1 0 0 0 0 0 0 4.75355 4.75355 0 0. 9.
 -11 -1 0 0 0 0 0 0 -5 5 0 0. 9.
 15 1 1 2 0 0 4.31922 -1.38234 -0.33183 4.88205 1.7768 0. 1
 -15 1 1 2 0 0 -4.31922 1.38234 0.0853842 4.87151 1.7768 0. -1
</event>
<event>
 4 80 1 -1 -1 -1
 11 -1 0 0 0 0 0 0 4.99995 4.99995 0 0. 9.
 -11 -1 0 0 0 0 0 0 -5 5 0 0. 9.
 15 1 1 2 0 0 0.754918 3.44904 -3.06209 4.99999 1.7768 0. -1
 -15 1 1 2 0 0 -0.754918 -3.44904 3.06203 4.99996 1.7768 0. 1
</event>
<event>
 4 80 1 -1 -1 -1
 11 -1 0 0 0 0 0 0 5 5 0 0. 9.
 -11 -1 0 0 0 0 0 0 -5 5 0 0. 9.
 15 1 1 2 0 0 -3.00673 -1.31669 3.32688 5 1.7768 0. -1
 -15 1 1 2 0 0 3.00673 1.31669 -3.32688 5 1.7768 0. 1
</event>
<event>
 4 80 1 -1 -1 -1
 11 -1 0 0 0 0 0 0 5 5 0 0. 9.
 -11 -1 0 0 0 0 0 0 -4.99017 4.99017 0 0. 9.
 15 1 1 2 0 0 -4.44605 -0.894262 1.11218 4.99618 1.7768 0. 1
 -15 1 1 2 0 0 4.44605 0.894262 -1.10235 4.994 1.7768 0. -1
</event>
<event>
 4 80 1 -1 -1 -1
 11 -1 0 0 0 0 0 0 5 5 0 0. 9.
 -11 -1 0 0 0 0 0 0 -4.29582 4.29582 0 0. 9.
 15 1 1 2 0 0 3.52364 -2.37207 0.881462 4.68801 1.7768 0. -1
 -15 1 1 2 0 0 -3.52364 2.37207 -0.177283 4.60781 1.7768 0. 1
</event>
<event>
 4 80 1 -1 -1 -1
 11 -1 0 0 0 0 0 0 4.9999 4.9999 0 0. 9.
 -11 -1 0 0 0 0 0 0 -4.94859 4.94859 0 0. 9.
 15 1 1 2 0 0 1.89135 1.66191 -3.87896 4.9541 1.7768 0. -1
 -15 1 1 2 0 0 -1.89135 -1.66191 3.93027 4.99439 1.7768 0. 1
</event>
<event>
 4 80 1 -1 -1 -1
 11 -1 0 0 0 0 0 0 5 5 0 0. 9.
 -11 -1 0 0 0 0 0 0 -5 5 0 0. 9.
 15 1 1 2 0 0 4.32384 -0.824005 1.57088 5 1.7768 0. -1
 -15 1 1 2 0 0 -4.32384 0.824005 -1.57088 5 1.7768 0. 1
</event>
<event>
 4 80 1 -1 -1 -1
 11 -1 0 0 0 0 0 0 5 5 0 0. 9.
 -11 -1 0 0 0 0 0 0 -0.697554 0.697554 0 0. 9.
 15 1 1 2 0 0 0.573927 -0.00702962 2.18854 2.87695 1.7768 0. -1
 -15 1 1 2 0 0 -0.573927 0.00702962 2.11391 2.8206 1.7768 0. 1
</event>
<event>
 4 80 1 -1 -1 -1
 11 -1 0 0 0 0 0 0 4.99886 4.99886 0 0. 9.
 -11 -1 0 0 0 0 0 0 -4.99911 4.99911 0 0. 9.
 15 1 1 2 0 0 3.19493 -1.91476 -2.82116 4.99905 1.7768 0. -1
 -15 1 1 2 0 0 -3.19493 1.91476 2.82091 4.99892 1.7768 0. 1
</event>
<event>
 4 80 1 -1 -1 -1
 11 -1 0 0 0 0 0 0 4.96833 4.96833 0 0. 9.
 -11 -1 0 0 0 0 0 0 -1.31845 1.31845 0 0. 9.
 15 1 1 2 0 0 0.340507 -1.7233 1.1444 2.74829 1.7768 0. -1
 -15 1 1 2 0 0 -0.340507 1.7233 2.50548 3.53849 1.7768 0. 1
</event>
<event>
 4 80 1 -1 -1 -1
 11 -1 0 0 0 0 0 0 1.75479 1.75479 0 0. 9.
 -11 -1 0 0 0 0 0 0 -4.41521 4.41521 0 0. 9.
 15 1 1 2 0 0 1.01439 -0.487092 -3.35082 3.95626 1.7768 0. 1
 -15 1 1 2 0 0 -1.01439 0.487092 0.690403 2.21374 1.7768 0. -1
</event>
<event>
 4 80 1 -1 -1 -1
 11 -1 0 0 0 0 0 0 5 5 0 0. 9.
 -11 -1 0 0 0 0 0 0 -5 5 0 0. 9.
 15 1 1 2 0 0 -2.50319 0.704338 3.88332 5 1.7768 0. -1
 -15 1 1 2 0 0 2.50319 -0.704338 -3.88332 5 1.7768 0. 1
</event>
<event>
 4 80 1 -1 -1 -1
 11 -1 0 0 0 0 0 0 4.99982 4.99982 0 0. 9.
 -11 -1 0 0 0 0 0 0 -5 5 0 0. 9.
 15 1 1 2 0 0 0.434344 4.35965 -1.6268 4.99994 1.7768 0. 1
 -15 1 1 2 0 0 -0.434344 -4.35965 1.62662 4.99988 1.7768 0. -1
</event>
<event>
 4 80 1 -1 -1 -1
 11 -1 0 0 0 0 0 0 5 5 0 0. 9.
 -11 -1 0 0 0 0 0 0 -5 5 0 0. 9.
 15 1 1 2 0 0 4.48909 1.10847 0.679423 5 1.7768 0. -1
 -15 1 1 2 0 0 -4.48909 -1.10847 -0.679423 5 1.7768 0. 1
</event>
<event>
 4 80 1 -1 -1 -1
 11 -1 0 0 0 0 0 0 5 5 0 0. 9.
 -11 -1 0 0 0 0 0 0 -5 5 0 0. 9.
 15 1 1 2 0 0 -0.494947 -1.45129 4.41487 5 1.7768 0. 1
 -15 1 1 2 0 0 0.494947 1.45129 -4.41487 5 1.7768 0. -1
</event>
<event>
 4 80 1 -1 -1 -1
 11 -1 0 0 0 0 0 0 4.42322 4.42322 0 0. 9.
 -11 -1 0 0 0 0 0 0 -5 5 0 0. 9.
 15 1 1 2 0 0 3.71552 1.98742 -1.38747 4.77888 1.7768 0. -1
 -15 1 1 2 0 0 -3.71552 -1.98742 0.810691 4.64434 1.7768 0. 1
</event>
<event>
 4 80 1 -1 -1 -1
 11 -1 0 0 0 0 0 0 4.99945 4.99945 0 0. 9.
 -11 -1 0 0 0 0 0 0 -4.99999 4.99999 0 0. 9.
 15 1 1 2 0 0 -0.716448 4.61453 0.179565 4.99971 1.7768 0. -1
 -15 1 1 2 0 0 0.716448 -4.61453 -0.180103 4.99973 1.7768 0. 1
</event>
<event>
 4 80 1 -1 -1 -1
 11 -1 0 0 0 0 0 0 3.35109 3.35109 0 0. 9.
 -11 -1 0 0 0 0 0 0 -4.99978 4.99978 0 0. 9.
 15 1 1 2 0 0 -3.47311 0.910977 -1.68059 4.34448 1.7768 0. 1
 -15 1 1 2 0 0 3.47311 -0.910977 0.0318934 4.00639 1.7768 0. -1
</event>
<event>
 4 80 1 -1 -1 -1
 11 -1 0 0 0 0 0 0 3.48301 3.48301 0 0. 9.
 -11 -1 0 0 0 0 0 0 -4.87187 4.87187 0 0. 9.
 15 1 1 2 0 0 1.44618 2.62765 1.53085 3.80752 1.7768 0. -1
 -15 1 1 2 0 0 -1.44618 -2.62765 -2.91971 4.54736 1.7768 0. 1
</event>
<event>
 4 80 1 -1 -1 -1
 11 -1 0 0 0 0 0 0 5 5 0 0. 9.
 -11 -1 0 0 0 0 0 0 -4.99987 4.99987 0 0. 9.
 15 1 1 2 0 0 2.17933 3.77007 -1.6966 4.99991 1.7768 0. -1
 -15 1 1 2 0 0 -2.17933 -3.77007 1.69674 4.99996 1.7768 0. 1
</event>
<event>
 4 80 1 -1 -1 -1
 11 -1 0 0 0 0 0 0 2.25794 2.25794 0 0. 9.
 -11 -1 0 0 0 0 0 0 -4.99976 4.99976 0 0. 9.
 15 1 1 2 0 0 -0.601771 -2.71575 -0.692979 3.37274 1.7768 0. -1
 -15 1 1 2 0 0 0.601771 2.71575 -2.04884 3.88496 1.7768 0. 1
</event>
<event>
 4 80 1 -1 -1 -1
 11 -1 0 0 0 0 0 0 4.99995 4.99995 0 0. 9.
 -11 -1 0 0 0 0 0 0 -5 5 0 0. 9.
 15 1 1 2 0 0 0.630966 -1.55096 4.36328 4.99995 1.7768 0. -1
 -15 1 1 2 0 0 -0.630966 1.55096 -4.36333 5 1.7768 0. 1
</event>
<event>
 4 80 1 -1 -1 -1
 11 -1 0 0 0 0 0 0 5 5 0 0. 9.
 -11 -1 0 0 0 0 0 0 -4.99969 4.99969 0 0. 9.
 15 1 1 2 0 0 3.55931 -3.02687 -0.100074 4.99984 1.7768 0. 1
 -15 1 1 2 0 0 -3.55931 3.02687 0.100385 4.99985 1.7768 0. -1
</event>
<event>
 4 80 1 -1 -1 -1
 11 -1 0 0 0 0 0 0 4.99901 4.99901 0 0. 9.
 -11 -1 0 0 0 0 0 0 -1.05307 1.05307 0 0. 9.
 15 1 1 2 0 0 -0.573307 0.988618 0.792927 2.25666 1.7768 0. -1
 -15 1 1 2 0 0 0.573307 -0.988618 3.15301 3.79542 1.7768 0. 1
</event>
<event>
 4 80 1 -1 -1 -1
 11 -1 0 0 0 0 0 0 5 5 0 0. 9.
 -11 -1 0 0 0 0 0 0 -0.722628 0.722628 0 0. 9.
 15 1 1 2 0 0 0.524573 -0.421967 2.0684 2.80878 1.7768 0. 1
 -15 1 1 2 0 0 -0.524573 0.421967 2.20897 2.91385 1.7768 0. -1
</event>
<event>
 4 80 1 -1 -1 -1
 11 -1 0 0 0 0 0 0 5 5 0 0. 9.
 -11 -1 0 0 0 0 0 0 -4.86776 4.86776 0 0. 9.
 15 1 1 2 0 0 -4.07715 -1.97468 0.877705 4.94476 1.7768 0. 1
 -15 1 1 2 0 0 4.07715 1.97468 -0.745464 4.923 1.7768 0. -1
</event>
<event>
 4 80 1 -1 -1 -1
 11 -1 0 0 0 0 0 0 4.98326 4.98326 0 0. 9.
 -11 -1 0 0 0 0 0 0 -5 5 0 0. 9.
 15 1 1 2 0 0 -2.65037 1.31036 -3.61629 4.99768 1.7768 0. -1
 -15 1 1 2 0 0 2.65037 -1.31036 3.59955 4.98558 1.7768 0. 1
</event>
<event>
 4 80 1 -1 -1 -1
 11 -1 0 0 0 0 0 0 1.7967 1.7967 0 0. 9.
 -11 -1 0 0 0 0 0 0 -5 5 0 0. 9.
 15 1 1 2 0 0 -0.465058 -0.26317 -4.27041 4.65614 1.7768 0. 1
 -15 1 1 2 0 0 0.465058 0.26317 1.0671 2.14055 1.7768 0. -1
</event>
<event>
 4 80 1 -1 -1 -1
 11 -1 0 0 0 0 0 0 5 5 0 0. 9.
 -11 -1 0 0 0 0 0 0 -4.69669 4.69669 0 0. 9.
 15 1 1 2 0 0 -3.25088 2.65608 1.79647 4.89979 1.7768 0. -1
 -15 1 1 2 0 0 3.25088 -2.65608 -1.49316 4.7969 1.7768 0. 1
</event>
<event>
 4 80 1 -1 -1 -1
 11 -1 0 0 0 0 0 0 4.99997 4.99997 0 0. 9.
 -11 -1 0 0 0 0 0 0 -4.99959 4.99959 0 0. 9.
 15 1 1 2 0 0 1.66701 -1.11944 -4.21976 4.99962 1.7768 0. 1
 -15 1 1 2 0 0 -1.66701 1.11944 4.22014 4.99994 1.7768 0. -1
</event>
<event>
 4 80 1 -1 -1 -1
 11 -1 0 0 0 0 0 0 4.99755 4.99755 0 0. 9.
 -11 -1 0 0 0 0 0 0 -5 5 0 0. 9.
 15 1 1 2 0 0 -2.26854 -0.332314 -4.07226 4.99977 1.7768 0. -1
 -15 1 1 2 0 0 2.26854 0.332314 4.0698 4.99778 1.7768 0. 1
</event>
<event>
 4 80 1 -1 -1 -1
 11 -1 0 0 0 0 0 0 1.8785 1.8785 0 0. 9.
 -11 -1 0 0 0 0 0 0 -5 5 0 0. 9.
 15 1 1 2 0 0 2.37207 -0.139504 -0.699807 3.04855 1.7768 0. -1
 -15 1 1 2 0 0 -2.37207 0.139504 -2.42169 3.82995 1.7768 0. 1
</event>
<event>
 4 80 1 -1 -1 -1
 11 -1 0 0 0 0 0 0 4.91891 4.91891 0 0. 9.
 -11 -1 0 0 0 0 0 0 -2.96218 2.96218 0 0. 9.
 15 1 1 2 0 0 0.605405 -0.56865 4.35883 4.77986 1.7768 0. 1
 -15 1 1 2 0 0 -0.605405 0.56865 -2.4021 3.10124 1.7768 0. -1
</event>
<event>
 4 80 1 -1 -1 -1
 11 -1 0 0 0 0 0 0 4.60982 4.60982 0 0. 9.
 -11 -1 0 0 0 0 0 0 -4.99441 4.99441 0 0. 9.
 15 1 1 2 0 0 4.17016 0.743241 1.19552 4.74654 1.7768 0. 1
 -15 1 1 2 0 0 -4.17016 -0.743241 -1.58011 4.85769 1.7768 0. -1
</event>
<event>
 4 80 1 -1 -1 -1
 11 -1 0 0 0 0 0 0 5 5 0 0. 9.
 -11 -1 0 0 0 0 0 0 -5 5 0 0. 9.
 15 1 1 2 0 0 -0.951509 -2.04416 -4.09369 5 1.7768 0. 1
 -15 1 1 2 0 0 0.951509 2.04416 4.09369 5 1.7768 0. -1
</event>
<event>
 4 80 1 -1 -1 -1
 11 -1 0 0 0 0 0 0 5 5 0 0. 9.
 -11 -1 0 0 0 0 0 0 -1.52203 1.52203 0 0. 9.
 15 1 1 2 0 0 -2.04015 0.412664 2.14837 3.47933 1.7768 0. 1
 -15 1 1 2 0 0 2.04015 -0.412664 1.3296 3.04271 1.7768 0. -1
</event>
<event>
 4 80 1 -1 -1 -1
 11 -1 0 0 0 0 0 0 5 5 0 0. 9.
 -11 -1 0 0 0 0 0 0 -5 5 0 0. 9.
 15 1 1 2 0 0 -3.26504 1.96183 2.70795 5 1.7768 0. -1
 -15 1 1 2 0 0 3.26504 -1.96183 -2.70795 5 1.7768 0. 1
</event>
<event>
 4 80 1 -1 -1 -1
 11 -1 0 0 0 0 0 0 4.94843 4.94843 0 0. 9.
 -11 -1 0 0 0 0 0 0 -2.69749 2.69749 0 0. 9.
 15 1 1 2 0 0 -1.81606 -1.04201 3.64694 4.56527 1.7768 0. 1
 -15 1 1 2 0 0 1.81606 1.04201 -1.396 3.08064 1.7768 0. -1
</event>
<event>
 4 80 1 -1 -1 -1
 11 -1 0 0 0 0 0 0 4.76828 4.76828 0 0. 9.
 -11 -1 0 0 0 0 0 0 -4.20911 4.20911 0 0. 9.
 15 1 1 2 0 0 -1.88712 -3.23758 1.97679 4.59441 1.7768 0. -1
 -15 1 1 2 0 0 1.88712 3.23758 -1.41761 4.38298 1.7768 0. 1
</event>
<event>
 4 80 1 -1 -1 -1
 11 -1 0 0 0 0 0 0 5 5 0 0. 9.
 -11 -1 0 0 0 0 0 0 -5 5 0 0. 9.
 15 1 1 2 0 0 -2.07566 0.205799 -4.18229 5 1.7768 0. -1
 -15 1 1 2 0 0 2.07566 -0.205799 4.18229 5 1.7768 0. 1
</event>
<event>
 4 80 1 -1 -1 -1
 11 -1 0 0 0 0 0 0 5 5 0 0. 9.
 -11 -1 0 0 0 0 0 0 -5 5 0 0. 9.
 15 1 1 2 0 0 1.73309 0.201612 -4.33567 5 1.7768 0. 1
 -15 1 1 2 0 0 -1.73309 -0.201612 4.33567 5 1.7768 0. -1
</event>
<event>
 4 80 1 -1 -1 -1
 11 -1 0 0 0 0 0 0 4.97575 4.97575 0 0. 9.
 -11 -1 0 0 0 0 0 0 -4.99999 4.99999 0 0. 9.
 15 1 1 2 0 0 -4.07193 -2.0884 0.870479 4.98572 1.7768 0. -1
 -15 1 1 2 0 0 4.07193 2.0884 -0.894714 4.99001 1.7768 0. 1
</event>
<event>
 4 80 1 -1 -1 -1
 11 -1 0 0 0 0 0 0 4.97549 4.97549 0 0. 9.
 -11 -1 0 0 0 0 0 0 -5 5 0 0. 9.
 15 1 1 2 0 0 -1.96791 3.69644 2.03307 4.98272 1.7768 0. -1
 -15 1 1 2 0 0 1.96791 -3.69644 -2.05758 4.99277 1.7768 0. 1
</event>
<event>
 4 80 1 -1 -1 -1
 11 -1 0 0 0 0 0 0 1.77438 1.77438 0 0. 9.
 -11 -1 0 0 0 0 0 0 -4.92754 4.92754 0 0. 9.
 15 1 1 2 0 0 -1.9967 0.119488 -0.150056 2.6798 1.7768 0. -1
 -15 1 1 2 0 0 1.9967 -0.119488 -3.0031 4.02212 1.7768 0. 1
</event>
<event>
 4 80 1 -1 -1 -1
 11 -1 0 0 0 0 0 0 5 5 0 0. 9.
 -11 -1 0 0 0 0 0 0 -4.99997 4.99997 0 0. 9.
 15 1 1 2 0 0 0.521978 -2.03809 4.17324 5 1.7768 0. -1
 -15 1 1 2 0 0 -0.521978 2.03809 -4.17322 4.99997 1.7768 0. 1
</event>
<event>
 4 80 1 -1 -1 -1
 11 -1 0 0 0 0 0 0 5 5 0 0. 9.
 -11 -1 0 0 0 0 0 0 -4.99212 4.99212 0 0. 9.
 15 1 1 2 0 0 0.964804 2.73076 3.66659 4.99895 1.7768 0. 1
 -15 1 1 2 0 0 -0.964804 -2.73076 -3.65871 4.99317 1.7768 0. -1
</event>
<event>
 4 80 1 -1 -1 -1
 11 -1 0 0 0 0 0 0 2.9636 2.9636 0 0. 9.
 -11 -1 0 0 0 0 0 0 -4.99998 4.99998 0 0. 9.
 15 1 1 2 0 0 -2.5772 -0.469989 -3.2838 4.56113 1.7768 0. -1
 -15 1 1 2 0 0 2.5772 0.469989 1.24742 3.40245 1.7768 0. 1
</event>
<event>
 4 80 1 -1 -1 -1
 11 -1 0 0 0 0 0 0 5 5 0 0. 9.
 -11 -1 0 0 0 0 0 0 -5 5 0 0. 9.
 15 1 1 2 0 0 -1.51375 4.40754 -0.352758 5 1.7768 0. 1
 -15 1 1 2 0 0 1.51375 -4.40754 0.352759 5 1.7768 0. -1
</event>
<event>
 4 80 1 -1 -1 -1
 11 -1 0 0 0 0 0 0 4.93352 4.93352 0 0. 9.
 -11 -1 0 0 0 0 0 0 -5 5 0 0. 9.
 15 1 1 2 0 0 1.63943 -4.26334 -0.83705 4.97214 1.7768 0. -1
 -15 1 1 2 0 0 -1.63943 4.26334 0.770568 4.96138 1.7768 0. 1
</event>
<event>
 4 80 1 -1 -1 -1
 11 -1 0 0 0 0 0 0 2.81162 2.81162 0 0. 9.
 -11 -1 0 0 0 0 0 0 -5 5 0 0. 9.
 15 1 1 2 0 0 -1.74385 -0.613948 1.75531 3.10754 1.7768 0. 1
 -15 1 1 2 0 0 1.74385 0.613948 -3.94369 4.70408 1.7768 0. -1
</event>
<event>
 4 80 1 -1 -1 -1
 11 -1 0 0 0 0 0 0 5 5 0 0. 9.
 -11 -1 0 0 0 0 0 0 -4.93341 4.93341 0 0. 9.
 15 1 1 2 0 0 0.471376 3.98754 -2.28766 4.95114 1.7768 0. 1
 -15 1 1 2 0 0 -0.471376 -3.98754 2.35426 4.98226 1.7768 0. -1
</event>
<event>
 4 80 1 -1 -1 -1
 11 -1 0 0 0 0 0 0 4.87259 4.87259 0 0. 9.
 -11 -1 0 0 0 0 0 0 -5 5 0 0. 9.
 15 1 1 2 0 0 0.719076 2.1288 3.95613 4.88442 1.7768 0. 1
 -15 1 1 2 0 0 -0.719076 -2.1288 -4.08354 4.98817 1.7768 0. -1
</event>
<event>
 4 80 1 -1 -1 -1
 11 -1 0 0 0 0 0 0 5 5 0 0. 9.
 -11 -1 0 0 0 0 0 0 -3.93768 3.93768 0 0. 9.
 15 1 1 2 0 0 -2.95777 2.13015 2.34533 4.68447 1.7768 0. 1
 -15 1 1 2 0 0 2.95777 -2.13015 -1.28301 4.25321 1.7768 0. -1
</event>
<event>
 4 80 1 -1 -1 -1
 11 -1 0 0 0 0 0 0 4.99999 4.99999 0 0. 9.
 -11 -1 0 0 0 0 0 0 -2.12508 2.12508 0 0. 9.
 15 1 1 2 0 0 0.149463 1.14026 -1.27181 2.46936 1.7768 0. -1
 -15 1 1 2 0 0 -0.149463 -1.14026 4.14673 4.65571 1.7768 0. 1
</event>
<event>
 4 80 1 -1 -1 -1
 11 -1 0 0 0 0 0 0 5 5 0 0. 9.
 -11 -1 0 0 0 0 0 0 -3.33061 3.33061 0 0. 9.
 15 1 1 2 0 0 0.04604 1.91327 4.03532 4.80668 1.7768 0. 1
 -15 1 1 2 0 0 -0.04604 -1.91327 -2.36593 3.52393 1.7768 0. -1
</event>
<event>
 4 80 1 -1 -1 -1
 11 -1 0 0 0 0 0 0 4.89912 4.89912 0 0. 9.
 -11 -1 0 0 0 0 0 0 -4.78575 4.78575 0 0. 9.
 15 1 1 2 0 0 1.72236 -0.51046 -4.07412 4.79408 1.7768 0. 1
 -15 1 1 2 0 0 -1.72236 0.51046 4.18749 4.89079 1.7768 0. -1
</event>
<event>
 4 80 1 -1 -1 -1
 11 -1 0 0 0 0 0 0 5 5 0 0. 9.
 -11 -1 0 0 0 0 0 0 -4.99849 4.99849 0 0. 9.
 15 1 1 2 0 0 -1.03636 -0.0789346 -4.55495 4.99856 1.7768 0. 1
 -15 1 1 2 0 0 1.03636 0.0789346 4.55646 4.99993 1.7768 0. -1
</event>
<event>
 4 80 1 -1 -1 -1
 11 -1 0 0 0 0 0 0 5 5 0 0. 9.
 -11 -1 0 0 0 0 0 0 -4.99821 4.99821 0 0. 9.
 15 1 1 2 0 0 2.8522 -0.313051 3.68875 4.99977 1.7768 0. 1
 -15 1 1 2 0 0 -2.8522 0.313051 -3.68697 4.99845 1.7768 0. -1
</event>
<event>
 4 80 1 -1 -1 -1
 11 -1 0 0 0 0 0 0 5 5 0 0. 9.
 -11 -1 0 0 0 0 0 0 -5 5 0 0. 9.
 15 1 1 2 0 0 -4.35355 -1.6758 0.283841 5 1.7768 0. -1
 -15 1 1 2 0 0 4.35355 1.6758 -0.283841 5 1.7768 0. 1
</event>
<event>
 4 80 1 -1 -1 -1
 11 -1 0 0 0 0 0 0 1.76097 1.76097 0 0. 9.
 -11 -1 0 0 0 0 0 0 -5 5 0 0. 9.
 15 1 1 2 0 0 -1.50651 0.350099 -3.67489 4.36517 1.7768 0. -1
 -15 1 1 2 0 0 1.50651 -0.350099 0.435857 2.3958 1.7768 0. 1
</event>
<event>
 4 80 1 -1 -1 -1
 11 -1 0 0 0 0 0 0 4.98183 4.98183 0 0. 9.
 -11 -1 0 0 0 0 0 0 -5 5 0 0. 9.
 15 1 1 2 0 0 -4.04214 1.12551 2.02703 4.98721 1.7768 0. 1
 -15 1 1 2 0 0 4.04214 -1.12551 -2.0452 4.99462 1.7768 0. -1
</event>
<event>
 4 80 1 -1 -1 -1
 11 -1 0 0 0 0 0 0 4.99999 4.99999 0 0. 9.
 -11 -1 0 0 0 0 0 0 -5 5 0 0. 9.
 15 1 1 2 0 0 -3.82639 2.62825 0.541492 4.99999 1.7768 0. -1
 -15 1 1 2 0 0 3.82639 -2.62825 -0.541504 4.99999 1.7768 0. 1
</event>
<event>
 4 80 1 -1 -1 -1
 11 -1 0 0 0 0 0 0 4.96534 4.96534 0 0. 9.
 -11 -1 0 0 0 0 0 0 -5 5 0 0. 9.
 15 1 1 2 0 0 3.61842 -2.73781 -1.05674 4.98628 1.7768 0. 1
 -15 1 1 2 0 0 -3.61842 2.73781 1.02208 4.97905 1.7768 0. -1
</event>
<event>
 4 80 1 -1 -1 -1
 11 -1 0 0 0 0 0 0 5 5 0 0. 9.
 -11 -1 0 0 0 0 0 0 -5 5 0 0. 9.
 15 1 1 2 0 0 -1.22972 1.22926 4.33808 5 1.7768 0. -1
 -15 1 1 2 0 0 1.22972 -1.22926 -4.33808 5 1.7768 0. 1
</event>
<event>
 4 80 1 -1 -1 -1
 11 -1 0 0 0 0 0 0 4.95898 4.95898 0 0. 9.
 -11 -1 0 0 0 0 0 0 -4.9929 4.9929 0 0. 9.
 15 1 1 2 0 0 1.24583 -1.47053 4.21242 4.96152 1.7768 0. 1
 -15 1 1 2 0 0 -1.24583 1.47053 -4.24634 4.99035 1.7768 0. -1
</event>
<event>
 4 80 1 -1 -1 -1
 11 -1 0 0 0 0 0 0 5 5 0 0. 9.
 -11 -1 0 0 0 0 0 0 -5 5 0 0. 9.
 15 1 1 2 0 0 -0.393832 1.89258 -4.25503 5 1.7768 0. -1
 -15 1 1 2 0 0 0.393832 -1.89258 4.25503 5 1.7768 0. 1
</event>
<event>
 4 80 1 -1 -1 -1
 11 -1 0 0 0 0 0 0 0.798066 0.798066 0 0. 9.
 -11 -1 0 0 0 0 0 0 -4.02253 4.02253 0 0. 9.
 15 1 1 2 0 0 0.0757265 -0.0124693 -1.32175 2.216 1.7768 0. 1
 -15 1 1 2 0 0 -0.0757265 0.0124693 -1.90272 2.6046 1.7768 0. -1
</event>
<event>
 4 80 1 -1 -1 -1
 11 -1 0 0 0 0 0 0 5 5 0 0. 9.
 -11 -1 0 0 0 0 0 0 -4.95688 4.95688 0 0. 9.
 15 1 1 2 0 0 -4.34176 -1.24707 1.12637 4.98322 1.7768 0. 1
 -15 1 1 2 0 0 4.34176 1.24707 -1.08325 4.97365 1.7768 0. -1
</event>
<event>
 4 80 1 -1 -1 -1
 11 -1 0 0 0 0 0 0 2.82648 2.82648 0 0. 9.
 -11 -1 0 0 0 0 0 0 -5 5 0 0. 9.
 15 1 1 2 0 0 -2.81092 -0.981758 0.425154 3.49337 1.7768 0. -1
 -15 1 1 2 0 0 2.81092 0.981758 -2.59867 4.33312 1.7768 0. 1
</event>
<event>
 4 80 1 -1 -1 -1
 11 -1 0 0 0 0 0 0 4.99978 4.99978 0 0. 9.
 -11 -1 0 0 0 0 0 0 -3.29519 3.29519 0 0. 9.
 15 1 1 2 0 0 -1.53144 0.931783 4.10029 4.81494 1.7768 0. 1
 -15 1 1 2 0 0 1.53144 -0.931783 -2.3957 3.48004 1.7768 0. -1
</event>
<event>
 4 80 1 -1 -1 -1
 11 -1 0 0 0 0 0 0 5 5 0 0. 9.
 -11 -1 0 0 0 0 0 0 -4.99955 4.99955 0 0. 9.
 15 1 1 2 0 0 0.512916 -1.89414 4.24159 4.99997 1.7768 0. 1
 -15 1 1 2 0 0 -0.512916 1.89414 -4.24114 4.99958 1.7768 0. -1
</event>
<event>
 4 80 1 -1 -1 -1
 11 -1 0 0 0 0 0 0 4.34929 4.34929 0 0. 9.
 -11 -1 0 0 0 0 0 0 -5 5 0 0. 9.
 15 1 1 2 0 0 -2.98029 2.97117 0.614304 4.60924 1.7768 0. 1
 -15 1 1 2 0 0 2.98029 -2.97117 -1.26502 4.74004 1.7768 0. -1
</event>
<event>
 4 80 1 -1 -1 -1
 11 -1 0 0 0 0 0 0 5 5 0 0. 9.
 -11 -1 0 0 0 0 0 0 -5 5 0 0. 9.
 15 1 1 2 0 0 -1.48679 2.90918 -3.34191 5 1.7768 0. -1
 -15 1 1 2 0 0 1.48679 -2.90918 3.34191 5 1.7768 0. 1
</event>
<event>
 4 80 1 -1 -1 -1
 11 -1 0 0 0 0 0 0 5 5 0 0. 9.
 -11 -1 0 0 0 0 0 0 -4.9999 4.9999 0 0. 9.
 15 1 1 2 0 0 2.90604 0.679198 -3.59652 4.99991 1.7768 0. 1
 -15 1 1 2 0 0 -2.90604 -0.679198 3.59663 4.99999 1.7768 0. -1
</event>
<event>
 4 80 1 -1 -1 -1
 11 -1 0 0 0 0 0 0 5 5 0 0. 9.
 -11 -1 0 0 0 0 0 0 -5 5 0 0. 9.
 15 1 1 2 0 0 -2.34189 0.679884 -3.98693 5 1.7768 0. -1
 -15 1 1 2 0 0 2.34189 -0.679884 3.98693 5 1.7768 0. 1
</event>
<event>
 4 80 1 -1 -1 -1
 11 -1 0 0 0 0 0 0 4.9999 4.9999 0 0. 9.
 -11 -1 0 0 0 0 0 0 -5 5 0 0. 9.
 15 1 1 2 0 0 -1.33318 -4.05949 1.89334 4.99993 1.7768 0. 1
 -15 1 1 2 0 0 1.33318 4.05949 -1.89344 4.99997 1.7768 0. -1
</event>
<event>
 4 80 1 -1 -1 -1
 11 -1 0 0 0 0 0 0 5 5 0 0. 9.
 -11 -1 0 0 0 0 0 0 -5 5 0 0. 9.
 15 1 1 2 0 0 -2.08309 -1.86993 3.74251 5 1.7768 0. 1
 -15 1 1 2 0 0 2.08309 1.86993 -3.74251 5 1.7768 0. -1
</event>
<event>
 4 80 1 -1 -1 -1
 11 -1 0 0 0 0 0 0 4.8954 4.8954 0 0. 9.
 -11 -1 0 0 0 0 0 0 -4.99596 4.99596 0 0. 9.
 15 1 1 2 0 0 2.02223 -3.51869 -2.24787 4.96802 1.7768 0. 1
 -15 1 1 2 0 0 -2.02223 3.51869 2.1473 4.92334 1.7768 0. -1
</event>
<event>
 4 80 1 -1 -1 -1
 11 -1 0 0 0 0 0 0 4.45153 4.45153 0 0. 9.
 -11 -1 0 0 0 0 0 0 -5 5 0 0. 9.
 15 1 1 2 0 0 -3.48575 -2.4802 0.620617 4.67384 1.7768 0. -1
 -15 1 1 2 0 0 3.48575 2.4802 -1.16909 4.77769 1.7768 0. 1
</event>
<event>
 4 80 1 -1 -1 -1
 11 -1 0 0 0 0 0 0 5 5 0 0. 9.
 -11 -1 0 0 0 0 0 0 -5 5 0 0. 9.
 15 1 1 2 0 0 1.90808 -2.62989 3.35935 5 1.7768 0. -1
 -15 1 1 2 0 0 -1.90808 2.62989 -3.35935 5 1.7768 0. 1
</event>
<event>
 4 80 1 -1 -1 -1
 11 -1 0 0 0 0 0 0 4.98327 4.98327 0 0. 9.
 -11 -1 0 0 0 0 0 0 -5 5 0 0. 9.
 15 1 1 2 0 0 -2.92588 -1.619 -3.26055 4.99709 1.7768 0. -1
 -15 1 1 2 0 0 2.92588 1.619 3.24383 4.98619 1.7768 0. 1
</event>
<event>
 4 80 1 -1 -1 -1
 11 -1 0 0 0 0 0 0 2.25312 2.25312 0 0. 9.
 -11 -1 0 0 0 0 0 0 -5 5 0 0. 9.
 15 1 1 2 0 0 -1.27226 -1.90742 0.450947 2.93564 1.7768 0. -1
 -15 1 1 2 0 0 1.27226 1.90742 -3.19782 4.31749 1.7768 0. 1
</event>
<event>
 4 80 1 -1 -1 -1
 11 -1 0 0 0 0 0 0 5 5 0 0. 9.
 -11 -1 0 0 0 0 0 0 -5 5 0 0. 9.
 15 1 1 2 0 0 -1.56313 0.134007 -4.40238 5 1.7768 0. 1
 -15 1 1 2 0 0 1.56313 -0.134007 4.40238 5 1.7768 0. -1
</event>
<event>
 4 80 1 -1 -1 -1
 11 -1 0 0 0 0 0 0 5 5 0 0. 9.
 -11 -1 0 0 0 0 0 0 -4.99997 4.99997 0 0. 9.
 15 1 1 2 0 0 4.56454 0.869083 -0.501783 4.99999 1.7768 0. -1
 -15 1 1 2 0 0 -4.56454 -0.869083 0.501809 4.99999 1.7768 0. 1
</event>
<event>
 4 80 1 -1 -1 -1
 11 -1 0 0 0 0 0 0 4.80107 4.80107 0 0. 9.
 -11 -1 0 0 0 0 0 0 -4.2174 4.2174 0 0. 9.
 15 1 1 2 0 0 1.56093 -3.75465 1.03932 4.55761 1.7768 0. 1
 -15 1 1 2 0 0 -1.56093 3.75465 -0.455659 4.46086 1.7768 0. -1
</event>
<event>
 4 80 1 -1 -1 -1
 11 -1 0 0 0 0 0 0 5 5 0 0. 9.
 -11 -1 0 0 0 0 0 0 -5 5 0 0. 9.
 15 1 1 2 0 0 1.83591 -3.39754 -2.63219 5 1.7768 0. 1
 -15 1 1 2 0 0 -1.83591 3.39754 2.63219 5 1.7768 0. -1
</event>
<event>
 4 80 1 -1 -1 -1
 11 -1 0 0 0 0 0 0 4.45711 4.45711 0 0. 9.
 -11 -1 0 0 0 0 0 0 -5 5 0 0. 9.
 15 1 1 2 0 0 1.68231 3.75711 1.2081 4.64362 1.7768 0. 1
 -15 1 1 2 0 0 -1.68231 -3.75711 -1.75098 4.81349 1.7768 0. -1
</event>
<event>
 4 80 1 -1 -1 -1
 11 -1 0 0 0 0 0 0 5 5 0 0. 9.
 -11 -1 0 0 0 0 0 0 -5 5 0 0. 9.
 15 1 1 2 0 0 0.167089 4.13209 -2.1772 5 1.7768 0. 1
 -15 1 1 2 0 0 -0.167089 -4.13209 2.1772 5 1.7768 0. -1
</event>
<event>
 4 80 1 -1 -1 -1
 11 -1 0 0 0 0 0 0 5 5 0 0. 9.
 -11 -1 0 0 0 0 0 0 -1.73247 1.73247 0 0. 9.
 15 1 1 2 0 0 2.21868 0.33111 2.41993 3.74779 1.7768 0. 1
 -15 1 1 2 0 0 -2.21868 -0.33111 0.847595 2.98468 1.7768 0. -1
</event>
<event>
 4 80 1 -1 -1 -1
 11 -1 0 0 0 0 0 0 5 5 0 0. 9.
 -11 -1 0 0 0 0 0 0 -5 5 0 0. 9.
 15 1 1 2 0 0 3.5559 2.83963 -1.06506 5 1.7768 0. 1
 -15 1 1 2 0 0 -3.5559 -2.83963 1.06506 5 1.7768 0. -1
</event>
<event>
 4 80 1 -1 -1 -1
 11 -1 0 0 0 0 0 0 3.92685 3.92685 0 0. 9.
 -11 -1 0 0 0 0 0 0 -4.99999 4.99999 0 0. 9.
 15 1 1 2 0 0 -2.62243 3.06922 -0.110044 4.41215 1.7768 0. -1
 -15 1 1 2 0 0 2.62243 -3.06922 -0.963091 4.5147 1.7768 0. 1
</event>
<event>
 4 80 1 -1 -1 -1
 11 -1 0 0 0 0 0 0 4.50838 4.50838 0 0. 9.
 -11 -1 0 0 0 0 0 0 -4.99974 4.99974 0 0. 9.
 15 1 1 2 0 0 0.227493 -0.796758 4.08404 4.53031 1.7768 0. 1
 -15 1 1 2 0 0 -0.227493 0.796758 -4.57541 4.97781 1.7768 0. -1
</event>
<event>
 4 80 1 -1 -1 -1
 11 -1 0 0 0 0 0 0 5 5 0 0. 9.
 -11 -1 0 0 0 0 0 0 -4.99972 4.99972 0 0. 9.
 15 1 1 2 0 0 1.21317 1.19409 -4.35224 4.99974 1.7768 0. 1
 -15 1 1 2 0 0 -1.21317 -1.19409 4.35252 4.99998 1.7768 0. -1
</event>
<event>
 4 80 1 -1 -1 -1
 11 -1 0 0 0 0 0 0 5 5 0 0. 9.
 -11 -1 0 0 0 0 0 0 -4.99705 4.99705 0 0. 9.
 15 1 1 2 0 0 3.14853 -1.63133 -3.04041 4.99763 1.7768 0. -1
 -15 1 1 2 0 0 -3.14853 1.63133 3.04336 4.99942 1.7768 0. 1
</event>
<event>
 4 80 1 -1 -1 -1
 11 -1 0 0 0 0 0 0 5 5 0 0. 9.
 -11 -1 0 0 0 0 0 0 -1.56158 1.56158 0 0. 9.
 15 1 1 2 0 0 -1.4779 1.53495 2.10845 3.48476 1.7768 0. 1
 -15 1 1 2 0 0 1.4779 -1.53495 1.32997 3.07682 1.7768 0. -1
</event>
<event>
 4 80 1 -1 -1 -1
 11 -1 0 0 0 0 0 0 5 5 0 0. 9.
 -11 -1 0 0 0 0 0 0 -5 5 0 0. 9.
 15 1 1 2 0 0 1.5887 4.18433 -1.34522 5 1.7768 0. 1
 -15 1 1 2 0 0 -1.5887 -4.18433 1.34522 5 1.7768 0. -1
</event>
<event>
 4 80 1 -1 -1 -1
 11 -1 0 0 0 0 0 0 5 5 0 0. 9.
 -11 -1 0 0 0 0 0 0 -4.99737 4.99737 0 0. 9.
 15 1 1 2 0 0 -4.31745 1.666 0.644084 4.99885 1.7768 0. 1
 -15 1 1 2 0 0 4.31745 -1.666 -0.641451 4.99851 1.7768 0. -1
</event>
<event>
 4 80 1 -1 -1 -1
 11 -1 0 0 0 0 0 0 4.99997 4.99997 0 0. 9.
 -11 -1 0 0 0 0 0 0 -1.49604 1.49604 0 0. 9.
 15 1 1 2 0 0 0.310483 -0.808882 -0.492446 2.03738 1.7768 0. 1
 -15 1 1 2 0 0 -0.310483 0.808882 3.99637 4.45863 1.7768 0. -1
</event>
<event>
 4 80 1 -1 -1 -1
 11 -1 0 0 0 0 0 0 5 5 0 0. 9.
 -11 -1 0 0 0 0 0 0 -5 5 0 0. 9.
 15 1 1 2 0 0 2.70036 -3.08079 -2.24924 5 1.7768 0. 1
 -15 1 1 2 0 0 -2.70036 3.08079 2.24924 5 1.7768 0. -1
</event>
<event>
 4 80 1 -1 -1 -1
 11 -1 0 0 0 0 0 0 5 5 0 0. 9.
 -11 -1 0 0 0 0 0 0 -2.6685 2.6685 0 0. 9.
 15 1 1 2 0 0 -0.987558 2.51602 2.94687 4.37577 1.7768 0. -1
 -15 1 1 2 0 0 0.987558 -2.51602 -0.615368 3.29272 1.7768 0. 1
</event>
<event>
 4 80 1 -1 -1 -1
 11 -1 0 0 0 0 0 0 5 5 0 0. 9.
 -11 -1 0 0 0 0 0 0 -4.50619 4.50619 0 0. 9.
 15 1 1 2 0 0 -0.0270422 0.284534 -4.15124 4.52463 1.7768 0. -1
 -15 1 1 2 0 0 0.0270422 -0.284534 4.64506 4.98156 1.7768 0. 1
</event>
<event>
 4 80 1 -1 -1 -1
 11 -1 0 0 0 0 0 0 5 5 0 0. 9.
 -11 -1 0 0 0 0 0 0 -4.99828 4.99828 0 0. 9.
 15 1 1 2 0 0 -2.65962 -2.39642 3.00373 4.99966 1.7768 0. -1
 -15 1 1 2 0 0 2.65962 2.39642 -3.00201 4.99862 1.7768 0. 1
</event>
<event>
 4 80 1 -1 -1 -1
 11 -1 0 0 0 0 0 0 4.83439 4.83439 0 0. 9.
 -11 -1 0 0 0 0 0 0 -4.9838 4.9838 0 0. 9.
 15 1 1 2 0 0 -3.38875 -2.87375 -1.16745 4.92572 1.7768 0. -1
 -15 1 1 2 0 0 3.38875 2.87375 1.01804 4.89246 1.7768 0. 1
</event>
<event>
 4 80 1 -1 -1 -1
 11 -1 0 0 0 0 0 0 4.99932 4.99932 0 0. 9.
 -11 -1 0 0 0 0 0 0 -4.99995 4.99995 0 0. 9.
 15 1 1 2 0 0 4.00813 2.09803 -1.17156 4.99971 1.7768 0. 1
 -15 1 1 2 0 0 -4.00813 -2.09803 1.17093 4.99956 1.7768 0. -1
</event>
<event>
 4 80 1 -1 -1 -1
 11 -1 0 0 0 0 0 0 5 5 0 0. 9.
 -11 -1 0 0 0 0 0 0 -5 5 0 0. 9.
 15 1 1 2 0 0 3.67748 0.937835 2.72742 5 1.7768 0. 1
 -15 1 1 2 0 0 -3.67748 -0.937835 -2.72742 5 1.7768 0. -1
</event>
<event>
 4 80 1 -1 -1 -1
 11 -1 0 0 0 0 0 0 5 5 0 0. 9.
 -11 -1 0 0 0 0 0 0 -5 5 0 0. 9.
 15 1 1 2 0 0 -1.97565 2.35422 3.5209 5 1.7768 0. -1
 -15 1 1 2 0 0 1.97565 -2.35422 -3.5209 5 1.7768 0. 1
</event>
<event>
 4 80 1 -1 -1 -1
 11 -1 0 0 0 0 0 0 4.9642 4.9642 0 0. 9.
 -11 -1 0 0 0 0 0 0 -5 5 0 0. 9.
 15 1 1 2 0 0 -1.63465 0.16768 -4.37259 4.99775 1.7768 0. -1
 -15 1 1 2 0 0 1.63465 -0.16768 4.33678 4.96645 1.7768 0. 1
</event>
<event>
 4 80 1 -1 -1 -1
 11 -1 0 0 0 0 0 0 5 5 0 0. 9.
 -11 -1 0 0 0 0 0 0 -4.99995 4.99995 0 0. 9.
 15 1 1 2 0 0 -3.98057 -1.46502 -1.96233 4.99997 1.7768 0. -1
 -15 1 1 2 0 0 3.98057 1.46502 1.96237 4.99999 1.7768 0. 1
</event>
<event>
 4 80 1 -1 -1 -1
 11 -1 0 0 0 0 0 0 3.81238 3.81238 0 0. 9.
 -11 -1 0 0 0 0 0 0 -3.30772 3.30772 0 0. 9.
 15 1 1 2 0 0 -0.786144 0.160089 -2.72313 3.34915 1.7768 0. 1
 -15 1 1 2 0 0 0.786144 -0.160089 3.22779 3.77094 1.7768 0. -1
</event>
<event>
 4 80 1 -1 -1 -1
 11 -1 0 0 0 0 0 0 5 5 0 0. 9.
 -11 -1 0 0 0 0 0 0 -5 5 0 0. 9.
 15 1 1 2 0 0 -4.44786 -1.00425 -1.02485 5 1.7768 0. -1
 -15 1 1 2 0 0 4.44786 1.00425 1.02485 5 1.7768 0. 1
</event>
<event>
 4 80 1 -1 -1 -1
 11 -1 0 0 0 0 0 0 5 5 0 0. 9.
 -11 -1 0 0 0 0 0 0 -5 5 0 0. 9.
 15 1 1 2 0 0 -3.2678 -3.32162 0.361381 5 1.7768 0. -1
 -15 1 1 2 0 0 3.2678 3.32162 -0.361377 5 1.7768 0. 1
</event>
<event>
 4 80 1 -1 -1 -1
 11 -1 0 0 0 0 0 0 4.99474 4.99474 0 0. 9.
 -11 -1 0 0 0 0 0 0 -5 5 0 0. 9.
 15 1 1 2 0 0 -2.73851 -0.346477 3.76519 4.99539 1.7768 0. 1
 -15 1 1 2 0 0 2.73851 0.346477 -3.77045 4.99935 1.7768 0. -1
</event>
<event>
 4 80 1 -1 -1 -1
 11 -1 0 0 0 0 0 0 5 5 0 0. 9.
 -11 -1 0 0 0 0 0 0 -4.99897 4.99897 0 0. 9.
 15 1 1 2 0 0 -4.58262 0.544256 -0.734668 4.99941 1.7768 0. -1
 -15 1 1 2 0 0 4.58262 -0.544256 0.735696 4.99956 1.7768 0. 1
</event>
<event>
 4 80 1 -1 -1 -1
 11 -1 0 0 0 0 0 0 4.99868 4.99868 0 0. 9.
 -11 -1 0 0 0 0 0 0 -4.99997 4.99997 0 0. 9.
 15 1 1 2 0 0 0.00425523 -1.98804 -4.2295 4.99987 1.7768 0. -1
 -15 1 1 2 0 0 -0.00425523 1.98804 4.22821 4.99878 1.7768 0. 1
</event>
<event>
 4 80 1 -1 -1 -1
 11 -1 0 0 0 0 0 0 3.77414 3.77414 0 0. 9.
 -11 -1 0 0 0 0 0 0 -4.99898 4.99898 0 0. 9.
 15 1 1 2 0 0 2.50409 -1.61732 -3.25032 4.75484 1.7768 0. 1
 -15 1 1 2 0 0 -2.50409 1.61732 2.02548 4.01827 1.7768 0. -1
</event>
<event>
 4 80 1 -1 -1 -1
 11 -1 0 0 0 0 0 0 4.9867 4.9867 0 0. 9.
 -11 -1 0 0 0 0 0 0 -5 5 0 0. 9.
 15 1 1 2 0 0 -2.25274 1.15051 3.91474 4.98813 1.7768 0. -1
 -15 1 1 2 0 0 2.25274 -1.15051 -3.92804 4.99857 1.7768 0. 1
</event>
<event>
 4 80 1 -1 -1 -1
 11 -1 0 0 0 0 0 0 5 5 0 0. 9.
 -11 -1 0 0 0 0 0 0 -5 5 0 0. 9.
 15 1 1 2 0 0 4.11465 -1.11266 -1.91676 5 1.7768 0. 1
 -15 1 1 2 0 0 -4.11465 1.11266 1.91676 5 1.7768 0. -1
</event>
<event>
 4 80 1 -1 -1 -1
 11 -1 0 0 0 0 0 0 5 5 0 0. 9.
 -11 -1 0 0 0 0 0 0 -3.10465 3.10465 0 0. 9.
 15 1 1 2 0 0 0.70837 -3.44234 0.826005 4.02387 1.7768 0. 1
 -15 1 1 2 0 0 -0.70837 3.44234 1.06935 4.08078 1.7768 0. -1
</event>
<event>
 4 80 1 -1 -1 -1
 11 -1 0 0 0 0 0 0 5 5 0 0. 9.
 -11 -1 0 0 0 0 0 0 -5 5 0 0. 9.
 15 1 1 2 0 0 2.07638 3.21365 -2.68391 5 1.7768 0. -1
 -15 1 1 2 0 0 -2.07638 -3.21365 2.68391 5 1.7768 0. 1
</event>
<event>
 4 80 1 -1 -1 -1
 11 -1 0 0 0 0 0 0 5 5 0 0. 9.
 -11 -1 0 0 0 0 0 0 -5 5 0 0. 9.
 15 1 1 2 0 0 1.36854 -0.609231 4.42699 5 1.7768 0. -1
 -15 1 1 2 0 0 -1.36854 0.609231 -4.42699 5 1.7768 0. 1
</event>
<event>
 4 80 1 -1 -1 -1
 11 -1 0 0 0 0 0 0 5 5 0 0. 9.
 -11 -1 0 0 0 0 0 0 -4.99987 4.99987 0 0. 9.
 15 1 1 2 0 0 -0.507838 1.98692 -4.19944 4.99988 1.7768 0. 1
 -15 1 1 2 0 0 0.507838 -1.98692 4.19957 4.99999 1.7768 0. -1
</event>
<event>
 4 80 1 -1 -1 -1
 11 -1 0 0 0 0 0 0 3.81805 3.81805 0 0. 9.
 -11 -1 0 0 0 0 0 0 -5 5 0 0. 9.
 15 1 1 2 0 0 -1.20111 0.523189 3.21379 3.89904 1.7768 0. -1
 -15 1 1 2 0 0 1.20111 -0.523189 -4.39574 4.91901 1.7768 0. 1
</event>
<event>
 4 80 1 -1 -1 -1
 11 -1 0 0 0 0 0 0 4.99778 4.99778 0 0. 9.
 -11 -1 0 0 0 0 0 0 -5 5 0 0. 9.
 15 1 1 2 0 0 -0.601844 2.21634 4.06789 4.99798 1.7768 0. -1
 -15 1 1 2 0 0 0.601844 -2.21634 -4.07011 4.99979 1.7768 0. 1
</event>
<event>
 4 80 1 -1 -1 -1
 11 -1 0 0 0 0 0 0 4.99999 4.99999 0 0. 9.
 -11 -1 0 0 0 0 0 0 -4.99004 4.99004 0 0. 9.
 15 1 1 2 0 0 2.46467 1.81252 3.53097 4.99853 1.7768 0. -1
 -15 1 1 2 0 0 -2.46467 -1.81252 -3.52102 4.99151 1.7768 0. 1
</event>
<event>
 4 80 1 -1 -1 -1
 11 -1 0 0 0 0 0 0 5 5 0 0. 9.
 -11 -1 0 0 0 0 0 0 -5 5 0 0. 9.
 15 1 1 2 0 0 0.567688 4.44741 1.31929 5 1.7768 0. 1
 -15 1 1 2 0 0 -0.567688 -4.44741 -1.31929 5 1.7768 0. -1
</event>
<event>
 4 80 1 -1 -1 -1
 11 -1 0 0 0 0 0 0 3.38733 3.38733 0 0. 9.
 -11 -1 0 0 0 0 0 0 -5 5 0 0. 9.
 15 1 1 2 0 0 1.38685 2.08881 1.98295 3.65736 1.7768 0. 1
 -15 1 1 2 0 0 -1.38685 -2.08881 -3.59562 4.72997 1.7768 0. -1
</event>
<event>
 4 80 1 -1 -1 -1
 11 -1 0 0 0 0 0 0 5 5 0 0. 9.
 -11 -1 0 0 0 0 0 0 -2.25296 2.25296 0 0. 9.
 15 1 1 2 0 0 0.961763 2.20998 -0.264449 3.00611 1.7768 0. -1
 -15 1 1 2 0 0 -0.961763 -2.20998 3.01149 4.24686 1.7768 0. 1
</event>
<event>
 4 80 1 -1 -1 -1
 11 -1 0 0 0 0 0 0 4.99675 4.99675 0 0. 9.
 -11 -1 0 0 0 0 0 0 -4.99607 4.99607 0 0. 9.
 15 1 1 2 0 0 0.760953 1.70638 -4.27934 4.99612 1.7768 0. 1
 -15 1 1 2 0 0 -0.760953 -1.70638 4.28001 4.9967 1.7768 0. -1
</event>
<event>
 4 80 1 -1 -1 -1
 11 -1 0 0 0 0 0 0 5 5 0 0. 9.
 -11 -1 0 0 0 0 0 0 -1.07298 1.07298 0 0. 9.
 15 1 1 2 0 0 0.931917 0.807486 0.877152 2.33401 1.7768 0. 1
 -15 1 1 2 0 0 -0.931917 -0.807486 3.04986 3.73897 1.7768 0. -1
</event>
<event>
 4 80 1 -1 -1 -1
 11 -1 0 0 0 0 0 0 5 5 0 0. 9.
 -11 -1 0 0 0 0 0 0 -5 5 0 0. 9.
 15 1 1 2 0 0 -3.38109 2.51217 -2.02472 5 1.7768 0. -1
 -15 1 1 2 0 0 3.38109 -2.51217 2.02472 5 1.7768 0. 1
</event>
<event>
 4 80 1 -1 -1 -1
 11 -1 0 0 0 0 0 0 5 5 0 0. 9.
 -11 -1 0 0 0 0 0 0 -5 5 0 0. 9.
 15 1 1 2 0 0 0.289885 3.54288 3.03417 5 1.7768 0. 1
 -15 1 1 2 0 0 -0.289885 -3.54288 -3.03417 5 1.7768 0. -1
</event>
<event>
 4 80 1 -1 -1 -1
 11 -1 0 0 0 0 0 0 5 5 0 0. 9.
 -11 -1 0 0 0 0 0 0 -4.98718 4.98718 0 0. 9.
 15 1 1 2 0 0 4.52346 -0.733268 -0.876074 4.99246 1.7768 0. -1
 -15 1 1 2 0 0 -4.52346 0.733268 0.888895 4.99472 1.7768 0. 1
</event>
<event>
 4 80 1 -1 -1 -1
 11 -1 0 0 0 0 0 0 4.99994 4.99994 0 0. 9.
 -11 -1 0 0 0 0 0 0 -4.87732 4.87732 0 0. 9.
 15 1 1 2 0 0 -2.67534 1.40493 -3.41708 4.89545 1.7768 0. 1
 -15 1 1 2 0 0 2.67534 -1.40493 3.5397 4.98181 1.7768 0. -1
</event>
<event>
 4 80 1 -1 -1 -1
 11 -1 0 0 0 0 0 0 3.23507 3.23507 0 0. 9.
 -11 -1 0 0 0 0 0 0 -5 5 0 0. 9.
 15 1 1 2 0 0 1.17529 -3.24073 -1.97267 4.35118 1.7768 0. -1
 -15 1 1 2 0 0 -1.17529 3.24073 0.207738 3.88388 1.7768 0. 1
</event>
<event>
 4 80 1 -1 -1 -1
 11 -1 0 0 0 0 0 0 5 5 0 0. 9.
 -11 -1 0 0 0 0 0 0 -2.6852 2.6852 0 0. 9.
 15 1 1 2 0 0 2.43529 -0.364171 3.30788 4.49033 1.7768 0. -1
 -15 1 1 2 0 0 -2.43529 0.364171 -0.993084 3.19487 1.7768 0. 1
</event>
<event>
 4 80 1 -1 -1 -1
 11 -1 0 0 0 0 0 0 4.99836 4.99836 0 0. 9.
 -11 -1 0 0 0 0 0 0 -5 5 0 0. 9.
 15 1 1 2 0 0 -0.537234 4.21816 -1.93796 4.9995 1.7768 0. -1
 -15 1 1 2 0 0 0.537234 -4.21816 1.93633 4.99886 1.7768 0. 1
</event>
<event>
 4 80 1 -1 -1 -1
 11 -1 0 0 0 0 0 0 5 5 0 0. 9.
 -11 -1 0 0 0 0 0 0 -4.99959 4.99959 0 0. 9.
 15 1 1 2 0 0 0.739924 4.48702 1.07695 4.99984 1.7768 0. -1
 -15 1 1 2 0 0 -0.739924 -4.48702 -1.07654 4.99975 1.7768 0. 1
</event>
<event>
 4 80 1 -1 -1 -1
 11 -1 0 0 0 0 0 0 5 5 0 0. 9.
 -11 -1 0 0 0 0 0 0 -4.98583 4.98583 0 0. 9.
 15 1 1 2 0 0 -0.000327282 -2.89692 -3.65069 4.98772 1.7768 0. -1
 -15 1 1 2 0 0 0.000327282 2.89692 3.66486 4.99811 1.7768 0. 1
</event>
<event>
 4 80 1 -1 -1 -1
 11 -1 0 0 0 0 0 0 5 5 0 0. 9.
 -11 -1 0 0 0 0 0 0 -3.64783 3.64783 0 0. 9.
 15 1 1 2 0 0 -0.824516 -2.30602 -2.3754 3.84679 1.7768 0. 1
 -15 1 1 2 0 0 0.824516 2.30602 3.72757 4.80104 1.7768 0. -1
</event>
<event>
 4 80 1 -1 -1 -1
 11 -1 0 0 0 0 0 0 1.88154 1.88154 0 0. 9.
 -11 -1 0 0 0 0 0 0 -5 5 0 0. 9.
 15 1 1 2 0 0 -0.597331 -0.0859963 -4.28078 4.67408 1.7768 0. 1
 -15 1 1 2 0 0 0.597331 0.0859963 1.16232 2.20747 1.7768 0. -1
</event>
<event>
 4 80 1 -1 -1 -1
 11 -1 0 0 0 0 0 0 4.99926 4.99926 0 0. 9.
 -11 -1 0 0 0 0 0 0 -5 5 0 0. 9.
 15 1 1 2 0 0 3.64445 2.19952 -1.92877 4.99977 1.7768 0. -1
 -15 1 1 2 0 0 -3.64445 -2.19952 1.92803 4.99949 1.7768 0. 1
</event>
<event>
 4 80 1 -1 -1 -1
 11 -1 0 0 0 0 0 0 4.85321 4.85321 0 0. 9.
 -11 -1 0 0 0 0 0 0 -4.99995 4.99995 0 0. 9.
 15 1 1 2 0 0 2.19835 3.54248 -2.0039 4.95533 1.7768 0. 1
 -15 1 1 2 0 0 -2.19835 -3.54248 1.85717 4.89783 1.7768 0. -1
</event>
<event>
 4 80 1 -1 -1 -1
 11 -1 0 0 0 0 0 0 4.98871 4.98871 0 0. 9.
 -11 -1 0 0 0 0 0 0 -4.05905 4.05905 0 0. 9.
 15 1 1 2 0 0 2.38273 -2.03314 -2.24779 4.24516 1.7768 0. 1
 -15 1 1 2 0 0 -2.38273 2.03314 3.17746 4.8026 1.7768 0. -1
</event>
<event>
 4 80 1 -1 -1 -1
 11 -1 0 0 0 0 0 0 5 5 0 0. 9.
 -11 -1 0 0 0 0 0 0 -1.17968 1.17968 0 0. 9.
 15 1 1 2 0 0 0.325742 -0.516065 -0.047691 1.87948 1.7768 0. -1
 -15 1 1 2 0 0 -0.325742 0.516065 3.86802 4.3002 1.7768 0. 1
</event>
<event>
 4 80 1 -1 -1 -1
 11 -1 0 0 0 0 0 0 4.99976 4.99976 0 0. 9.
 -11 -1 0 0 0 0 0 0 -5 5 0 0. 9.
 15 1 1 2 0 0 1.71736 -1.08845 -4.20809 4.99998 1.7768 0. 1
 -15 1 1 2 0 0 -1.71736 1.08845 4.20785 4.99978 1.7768 0. -1
</event>
<event>
 4 80 1 -1 -1 -1
 11 -1 0 0 0 0 0 0 4.72233 4.72233 0 0. 9.
 -11 -1 0 0 0 0 0 0 -4.99962 4.99962 0 0. 9.
 15 1 1 2 0 0 -2.24604 -3.9028 -0.557795 4.87293 1.7768 0. -1
 -15 1 1 2 0 0 2.24604 3.9028 0.280512 4.84902 1.7768 0. 1
</event>
<event>
 4 80 1 -1 -1 -1
 11 -1 0 0 0 0 0 0 5 5 0 0. 9.
 -11 -1 0 0 0 0 0 0 -1.87954 1.87954 0 0. 9.
 15 1 1 2 0 0 0.326628 0.0558425 4.33837 4.69989 1.7768 0. 1
 -15 1 1 2 0 0 -0.326628 -0.0558425 -1.21791 2.17964 1.7768 0. -1
</event>
<event>
 4 80 1 -1 -1 -1
 11 -1 0 0 0 0 0 0 4.99999 4.99999 0 0. 9.
 -11 -1 0 0 0 0 0 0 -5 5 0 0. 9.
 15 1 1 2 0 0 -3.41014 -2.13088 -2.38171 5 1.7768 0. -1
 -15 1 1 2 0 0 3.41014 2.13088 2.3817 4.99999 1.7768 0. 1
</event>
<event>
 4 80 1 -1 -1 -1
 11 -1 0 0 0 0 0 0 4.99999 4.99999 0 0. 9.
 -11 -1 0 0 0 0 0 0 -4.9998 4.9998 0 0. 9.
 15 1 1 2 0 0 1.11238 -3.46147 -2.93624 4.99984 1.7768 0. -1
 -15 1 1 2 0 0 -1.11238 3.46147 2.93643 4.99995 1.7768 0. 1
</event>
<event>
 4 80 1 -1 -1 -1
 11 -1 0 0 0 0 0 0 1.36112 1.36112 0 0. 9.
 -11 -1 0 0 0 0 0 0 -4.97645 4.97645 0 0. 9.
 15 1 1 2 0 0 0.849525 -0.532352 -3.77494 4.29104 1.7768 0. 1
 -15 1 1 2 0 0 -0.849525 0.532352 0.159608 2.04653 1.7768 0. -1
</event>
<event>
 4 80 1 -1 -1 -1
 11 -1 0 0 0 0 0 0 4.99922 4.99922 0 0. 9.
 -11 -1 0 0 0 0 0 0 -4.99825 4.99825 0 0. 9.
 15 1 1 2 0 0 3.68164 1.75069 2.28308 4.99896 1.7768 0. -1
 -15 1 1 2 0 0 -3.68164 -1.75069 -2.28211 4.99851 1.7768 0. 1
</event>
<event>
 4 80 1 -1 -1 -1
 11 -1 0 0 0 0 0 0 2.32879 2.32879 0 0. 9.
 -11 -1 0 0 0 0 0 0 -4.84594 4.84594 0 0. 9.
 15 1 1 2 0 0 1.9991 2.02167 -1.03484 3.50887 1.7768 0. 1
 -15 1 1 2 0 0 -1.9991 -2.02167 -1.48231 3.66586 1.7768 0. -1
</event>
<event>
 4 80 1 -1 -1 -1
 11 -1 0 0 0 0 0 0 5 5 0 0. 9.
 -11 -1 0 0 0 0 0 0 -4.76435 4.76435 0 0. 9.
 15 1 1 2 0 0 0.567174 2.22074 -3.80896 4.78741 1.7768 0. -1
 -15 1 1 2 0 0 -0.567174 -2.22074 4.04461 4.97694 1.7768 0. 1
</event>
<event>
 4 80 1 -1 -1 -1
 11 -1 0 0 0 0 0 0 5 5 0 0. 9.
 -11 -1 0 0 0 0 0 0 -5 5 0 0. 9.
 15 1 1 2 0 0 -2.11611 -4.16664 0.0590535 5 1.7768 0. -1
 -15 1 1 2 0 0 2.11611 4.16664 -0.0590531 5 1.7768 0. 1
</event>
<event>
 4 80 1 -1 -1 -1
 11 -1 0 0 0 0 0 0 4.99986 4.99986 0 0. 9.
 -11 -1 0 0 0 0 0 0 -5 5 0 0. 9.
 15 1 1 2 0 0 3.15543 -3.3252 -0.909929 4.99994 1.7768 0. 1
 -15 1 1 2 0 0 -3.15543 3.3252 0.909791 4.99992 1.7768 0. -1
</event>
<event>
 4 80 1 -1 -1 -1
 11 -1 0 0 0 0 0 0 4.99945 4.99945 0 0. 9.
 -11 -1 0 0 0 0 0 0 -5 5 0 0. 9.
 15 1 1 2 0 0 1.26094 -0.434314 -4.47922 4.99997 1.7768 0. -1
 -15 1 1 2 0 0 -1.26094 0.434314 4.47867 4.99948 1.7768 0. 1
</event>
<event>
 4 80 1 -1 -1 -1
 11 -1 0 0 0 0 0 0 5 5 0 0. 9.
 -11 -1 0 0 0 0 0 0 -4.95439 4.95439 0 0. 9.
 15 1 1 2 0 0 3.83872 0.328152 -2.5793 4.96528 1.7768 0. -1
 -15 1 1 2 0 0 -3.83872 -0.328152 2.62491 4.98912 1.7768 0. 1
</event>
<event>
 4 80 1 -1 -1 -1
 11 -1 0 0 0 0 0 0 5 5 0 0. 9.
 -11 -1 0 0 0 0 0 0 -5 5 0 0. 9.
 15 1 1 2 0 0 3.40076 1.49679 -2.83491 5 1.7768 0. -1
 -15 1 1 2 0 0 -3.40076 -1.49679 2.83491 5 1.7768 0. 1
</event>
<event>
 4 80 1 -1 -1 -1
 11 -1 0 0 0 0 0 0 5 5 0 0. 9.
 -11 -1 0 0 0 0 0 0 -4.99987 4.99987 0 0. 9.
 15 1 1 2 0 0 3.82645 -0.751077 2.57607 4.99997 1.7768 0. 1
 -15 1 1 2 0 0 -3.82645 0.751077 -2.57594 4.9999 1.7768 0. -1
</event>
<event>
 4 80 1 -1 -1 -1
 11 -1 0 0 0 0 0 0 4.97024 4.97024 0 0. 9.
 -11 -1 0 0 0 0 0 0 -5 5 0 0. 9.
 15 1 1 2 0 0 2.45017 1.81568 -3.53533 4.99563 1.7768 0. -1
 -15 1 1 2 0 0 -2.45017 -1.81568 3.50557 4.97461 1.7768 0. 1
</event>
<event>
 4 80 1 -1 -1 -1
 11 -1 0 0 0 0 0 0 5 5 0 0. 9.
 -11 -1 0 0 0 0 0 0 -5 5 0 0. 9.
 15 1 1 2 0 0 3.18889 -3.21718 -1.15021 5 1.7768 0. 1
 -15 1 1 2 0 0 -3.18889 3.21718 1.15021 5 1.7768 0. -1
</event>
<event>
 4 80 1 -1 -1 -1
 11 -1 0 0 0 0 0 0 5 5 0 0. 9.
 -11 -1 0 0 0 0 0 0 -5 5 0 0. 9.
 15 1 1 2 0 0 -3.2101 0.483248 -3.36214 5 1.7768 0. 1
 -15 1 1 2 0 0 3.2101 -0.483248 3.36214 5 1.7768 0. -1
</event>
<event>
 4 80 1 -1 -1 -1
 11 -1 0 0 0 0 0 0 4.99998 4.99998 0 0. 9.
 -11 -1 0 0 0 0 0 0 -5 5 0 0. 9.
 15 1 1 2 0 0 3.107 -2.02414 2.84456 4.99998 1.7768 0. -1
 -15 1 1 2 0 0 -3.107 2.02414 -2.84458 4.99999 1.7768 0. 1
</event>
<event>
 4 80 1 -1 -1 -1
 11 -1 0 0 0 0 0 0 5 5 0 0. 9.
 -11 -1 0 0 0 0 0 0 -4.99976 4.99976 0 0. 9.
 15 1 1 2 0 0 4.06713 -0.433408 -2.26077 4.99982 1.7768 0. 1
 -15 1 1 2 0 0 -4.06713 0.433408 2.26101 4.99993 1.7768 0. -1
</event>
<event>
 4 80 1 -1 -1 -1
 11 -1 0 0 0 0 0 0 4.97699 4.97699 0 0. 9.
 -11 -1 0 0 0 0 0 0 -5 5 0 0. 9.
 15 1 1 2 0 0 0.497559 -4.45646 -1.28415 4.99143 1.7768 0. 1
 -15 1 1 2 0 0 -0.497559 4.45646 1.26114 4.98556 1.7768 0. -1
</event>
<event>
 4 80 1 -1 -1 -1
 11 -1 0 0 0 0 0 0 5 5 0 0. 9.
 -11 -1 0 0 0 0 0 0 -5 5 0 0. 9.
 15 1 1 2 0 0 -4.33982 -1.70022 0.342782 5 1.7768 0. -1
 -15 1 1 2 0 0 4.33982 1.70022 -0.342782 5 1.7768 0. 1
</event>
<event>
 4 80 1 -1 -1 -1
 11 -1 0 0 0 0 0 0 5 5 0 0. 9.
 -11 -1 0 0 0 0 0 0 -5 5 0 0. 9.
 15 1 1 2 0 0 0.813108 -2.32293 -3.97305 5 1.7768 0. -1
 -15 1 1 2 0 0 -0.813108 2.32293 3.97305 5 1.7768 0. 1
</event>
<event>
 4 80 1 -1 -1 -1
 11 -1 0 0 0 0 0 0 5 5 0 0. 9.
 -11 -1 0 0 0 0 0 0 -5 5 0 0. 9.
 15 1 1 2 0 0 -1.53871 -4.41176 0.104959 5 1.7768 0. 1
 -15 1 1 2 0 0 1.53871 4.41176 -0.104959 5 1.7768 0. -1
</event>
<event>
 4 80 1 -1 -1 -1
 11 -1 0 0 0 0 0 0 5 5 0 0. 9.
 -11 -1 0 0 0 0 0 0 -5 5 0 0. 9.
 15 1 1 2 0 0 -1.87306 2.70002 3.32322 5 1.7768 0. 1
 -15 1 1 2 0 0 1.87306 -2.70002 -3.32322 5 1.7768 0. -1
</event>
<event>
 4 80 1 -1 -1 -1
 11 -1 0 0 0 0 0 0 5 5 0 0. 9.
 -11 -1 0 0 0 0 0 0 -5 5 0 0. 9.
 15 1 1 2 0 0 -0.725969 -0.85785 4.53645 5 1.7768 0. -1
 -15 1 1 2 0 0 0.725969 0.85785 -4.53644 5 1.7768 0. 1
</event>
<event>
 4 80 1 -1 -1 -1
 11 -1 0 0 0 0 0 0 5 5 0 0. 9.
 -11 -1 0 0 0 0 0 0 -5 5 0 0. 9.
 15 1 1 2 0 0 1.81112 -4.24778 0.720069 5 1.7768 0. 1
 -15 1 1 2 0 0 -1.81112 4.24778 -0.720069 5 1.7768 0. -1
</event>
<event>
 4 80 1 -1 -1 -1
 11 -1 0 0 0 0 0 0 5 5 0 0. 9.
 -11 -1 0 0 0 0 0 0 -4.99998 4.99998 0 0. 9.
 15 1 1 2 0 0 -2.05844 1.03453 -4.06629 4.99999 1.7768 0. -1
 -15 1 1 2 0 0 2.05844 -1.03453 4.06631 5 1.7768 0. 1
</event>
<event>
 4 80 1 -1 -1 -1
 11 -1 0 0 0 0 0 0 4.97961 4.97961 0 0. 9.
 -11 -1 0 0 0 0 0 0 -4.994 4.994 0 0. 9.
 15 1 1 2 0 0 -1.90491 4.23335 -0.407785 4.98738 1.7768 0. 1
 -15 1 1 2 0 0 1.90491 -4.23335 0.393402 4.98623 1.7768 0. -1
</event>
<event>
 4 80 1 -1 -1 -1
 11 -1 0 0 0 0 0 0 5 5 0 0. 9.
 -11 -1 0 0 0 0 0 0 -5 5 0 0. 9.
 15 1 1 2 0 0 3.30261 2.99375 -1.40444 5 1.7768 0. 1
 -15 1 1 2 0 0 -3.30261 -2.99375 1.40444 5 1.7768 0. -1
</event>
<event>
 4 80 1 -1 -1 -1
 11 -1 0 0 0 0 0 0 5 5 0 0. 9.
 -11 -1 0 0 0 0 0 0 -5 5 0 0. 9.
 15 1 1 2 0 0 -3.59647 0.566314 2.93035 5 1.7768 0. 1
 -15 1 1 2 0 0 3.59647 -0.566314 -2.93035 5 1.7768 0. -1
</event>
<event>
 4 80 1 -1 -1 -1
 11 -1 0 0 0 0 0 0 4.99783 4.99783 0 0. 9.
 -11 -1 0 0 0 0 0 0 -4.99993 4.99993 0 0. 9.
 15 1 1 2 0 0 -1.35078 -0.593206 4.4323 4.99795 1.7768 0. -1
 -15 1 1 2 0 0 1.35078 0.593206 -4.4344 4.99981 1.7768 0. 1
</event>
<event>
 4 80 1 -1 -1 -1
 11 -1 0 0 0 0 0 0 5 5 0 0. 9.
 -11 -1 0 0 0 0 0 0 -5 5 0 0. 9.
 15 1 1 2 0 0 -0.106446 2.51642 3.93682 5 1.7768 0. -1
 -15 1 1 2 0 0 0.106446 -2.51642 -3.93682 5 1.7768 0. 1
</event>
<event>
 4 80 1 -1 -1 -1
 11 -1 0 0 0 0 0 0 5 5 0 0. 9.
 -11 -1 0 0 0 0 0 0 -5 5 0 0. 9.
 15 1 1 2 0 0 -1.1372 3.82529 2.43232 5 1.7768 0. -1
 -15 1 1 2 0 0 1.1372 -3.82529 -2.43232 5 1.7768 0. 1
</event>
<event>
 4 80 1 -1 -1 -1
 11 -1 0 0 0 0 0 0 5 5 0 0. 9.
 -11 -1 0 0 0 0 0 0 -3.46954 3.46954 0 0. 9.
 15 1 1 2 0 0 3.69583 -0.147391 0.0398293 4.10369 1.7768 0. -1
 -15 1 1 2 0 0 -3.69583 0.147391 1.49064 4.36585 1.7768 0. 1
</event>
<event>
 4 80 1 -1 -1 -1
 11 -1 0 0 0 0 0 0 4.99994 4.99994 0 0. 9.
 -11 -1 0 0 0 0 0 0 -5 5 0 0. 9.
 15 1 1 2 0 0 0.740243 -1.61671 -4.3221 5 1.7768 0. 1
 -15 1 1 2 0 0 -0.740243 1.61671 4.32203 4.99994 1.7768 0. -1
</event>
<event>
 4 80 1 -1 -1 -1
 11 -1 0 0 0 0 0 0 4.99998 4.99998 0 0. 9.
 -11 -1 0 0 0 0 0 0 -5 5 0 0. 9.
 15 1 1 2 0 0 0.13173 3.34859 3.25756 4.99998 1.7768 0. 1
 -15 1 1 2 0 0 -0.13173 -3.34859 -3.25758 5 1.7768 0. -1
</event>
<event>
 4 80 1 -1 -1 -1
 11 -1 0 0 0 0 0 0 4.45715 4.45715 0 0. 9.
 -11 -1 0 0 0 0 0 0 -5 5 0 0. 9.
 15 1 1 2 0 0 -2.88334 2.01913 2.32852 4.57934 1.7768 0. -1
 -15 1 1 2 0 0 2.88334 -2.01913 -2.87137 4.87781 1.7768 0. 1
</event>
<event>
 4 80 1 -1 -1 -1
 11 -1 0 0 0 0 0 0 5 5 0 0. 9.
 -11 -1 0 0 0 0 0 0 -3.26283 3.26283 0 0. 9.
 15 1 1 2 0 0 -3.23675 -0.177564 2.53317 4.48138 1.7768 0. -1
 -15 1 1 2 0 0 3.23675 0.177564 -0.795999 3.78145 1.7768 0. 1
</event>
<event>
 4 80 1 -1 -1 -1
 11 -1 0 0 0 0 0 0 4.99998 4.99998 0 0. 9.
 -11 -1 0 0 0 0 0 0 -4.99945 4.99945 0 0. 9.
 15 1 1 2 0 0 0.363574 -3.2192 3.36835 4.99989 1.7768 0. -1
 -15 1 1 2 0 0 -0.363574 3.2192 -3.36782 4.99954 1.7768 0. 1
</event>
<event>
 4 80 1 -1 -1 -1
 11 -1 0 0 0 0 0 0 5 5 0 0. 9.
 -11 -1 0 0 0 0 0 0 -4.92131 4.92131 0 0. 9.
 15 1 1 2 0 0 2.51387 0.437997 -3.82568 4.93 1.7768 0. 1
 -15 1 1 2 0 0 -2.51387 -0.437997 3.90436 4.99131 1.7768 0. -1
</event>
<event>
 4 80 1 -1 -1 -1
 11 -1 0 0 0 0 0 0 5 5 0 0. 9.
 -11 -1 0 0 0 0 0 0 -4.9317 4.9317 0 0. 9.
 15 1 1 2 0 0 3.20117 -0.777783 -3.22911 4.94341 1.7768 0. -1
 -15 1 1 2 0 0 -3.20117 0.777783 3.29741 4.98829 1.7768 0. 1
</event>
<event>
 4 80 1 -1 -1 -1
 11 -1 0 0 0 0 0 0 5 5 0 0. 9.
 -11 -1 0 0 0 0 0 0 -4.87195 4.87195 0 0. 9.
 15 1 1 2 0 0 2.94387 2.1924 2.84437 4.97204 1.7768 0. 1
 -15 1 1 2 0 0 -2.94387 -2.1924 -2.71632 4.89991 1.7768 0. -1
</event>
<event>
 4 80 1 -1 -1 -1
 11 -1 0 0 0 0 0 0 0.913377 0.913377 0 0. 9.
 -11 -1 0 0 0 0 0 0 -4.90278 4.90278 0 0. 9.
 15 1 1 2 0 0 -0.86061 -0.561428 -2.70147 3.39286 1.7768 0. -1
 -15 1 1 2 0 0 0.86061 0.561428 -1.28793 2.42329 1.7768 0. 1
</event>
<event>
 4 80 1 -1 -1 -1
 11 -1 0 0 0 0 0 0 4.9991 4.9991 0 0. 9.
 -11 -1 0 0 0 0 0 0 -5 5 0 0. 9.
 15 1 1 2 0 0 0.361088 2.3326 -4.03361 4.99991 1.7768 0. 1
 -15 1 1 2 0 0 -0.361088 -2.3326 4.03271 4.99918 1.7768 0. -1
</event>
<event>
 4 80 1 -1 -1 -1
 11 -1 0 0 0 0 0 0 4.98705 4.98705 0 0. 9.
 -11 -1 0 0 0 0 0 0 -5 5 0 0. 9.
 15 1 1 2 0 0 -3.83868 0.820104 -2.53026 4.9968 1.7768 0. -1
 -15 1 1 2 0 0 3.83868 -0.820104 2.51731 4.99025 1.7768 0. 1
</event>
<event>
 4 80 1 -1 -1 -1
 11 -1 0 0 0 0 0 0 5 5 0 0. 9.
 -11 -1 0 0 0 0 0 0 -4.99843 4.99843 0 0. 9.
 15 1 1 2 0 0 0.532494 -4.32586 1.68536 4.99948 1.7768 0. -1
 -15 1 1 2 0 0 -0.532494 4.32586 -1.68379 4.99895 1.7768 0. 1
</event>
<event>
 4 80 1 -1 -1 -1
 11 -1 0 0 0 0 0 0 5 5 0 0. 9.
 -11 -1 0 0 0 0 0 0 -4.88 4.88 0 0. 9.
 15 1 1 2 0 0 0.664209 3.36605 -3.0177 4.90262 1.7768 0. -1
 -15 1 1 2 0 0 -0.664209 -3.36605 3.1377 4.97738 1.7768 0. 1
</event>
<event>
 4 80 1 -1 -1 -1
 11 -1 0 0 0 0 0 0 5 5 0 0. 9.
 -11 -1 0 0 0 0 0 0 -5 5 0 0. 9.
 15 1 1 2 0 0 2.95637 -1.47713 3.30457 5 1.7768 0. -1
 -15 1 1 2 0 0 -2.95637 1.47713 -3.30457 5 1.7768 0. 1
</event>
<event>
 4 80 1 -1 -1 -1
 11 -1 0 0 0 0 0 0 2.63239 2.63239 0 0. 9.
 -11 -1 0 0 0 0 0 0 -4.99998 4.99998 0 0. 9.
 15 1 1 2 0 0 2.11115 -2.35462 -1.24154 3.8341 1.7768 0. 1
 -15 1 1 2 0 0 -2.11115 2.35462 -1.12604 3.79827 1.7768 0. -1
</event>
<event>
 4 80 1 -1 -1 -1
 11 -1 0 0 0 0 0 0 3.34435 3.34435 0 0. 9.
 -11 -1 0 0 0 0 0 0 -4.77562 4.77562 0 0. 9.
 15 1 1 2 0 0 0.778345 -1.76919 -3.77649 4.59951 1.7768 0. 1
 -15 1 1 2 0 0 -0.778345 1.76919 2.34522 3.52046 1.7768 0. -1
</event>
<event>
 4 80 1 -1 -1 -1
 11 -1 0 0 0 0 0 0 5 5 0 0. 9.
 -11 -1 0 0 0 0 0 0 -5 5 0 0. 9.
 15 1 1 2 0 0 -0.28928 -1.86 -4.27773 5 1.7768 0. -1
 -15 1 1 2 0 0 0.28928 1.86 4.27773 5 1.7768 0. 1
</event>
<event>
 4 80 1 -1 -1 -1
 11 -1 0 0 0 0 0 0 5 5 0 0. 9.
 -11 -1 0 0 0 0 0 0 -5 5 0 0. 9.
 15 1 1 2 0 0 3.49085 3.05824 -0.55084 5 1.7768 0. -1
 -15 1 1 2 0 0 -3.49085 -3.05824 0.550841 5 1.7768 0. 1
</event>
<event>
 4 80 1 -1 -1 -1
 11 -1 0 0 0 0 0 0 4.58344 4.58344 0 0. 9.
 -11 -1 0 0 0 0 0 0 -5 5 0 0. 9.
 15 1 1 2 0 0 3.66209 -1.9575 1.37966 4.7227 1.7768 0. -1
 -15 1 1 2 0 0 -3.66209 1.9575 -1.79622 4.86074 1.7768 0. 1
</event>
<event>
 4 80 1 -1 -1 -1
 11 -1 0 0 0 0 0 0 0.688177 0.688177 0 0. 9.
 -11 -1 0 0 0 0 0 0 -5 5 0 0. 9.
 15 1 1 2 0 0 0.320916 0.111403 -1.52793 2.36806 1.7768 0. -1
 -15 1 1 2 0 0 -0.320916 -0.111403 -2.78389 3.32012 1.7768 0. 1
</event>
<event>
 4 80 1 -1 -1 -1
 11 -1 0 0 0 0 0 0 5 5 0 0. 9.
 -11 -1 0 0 0 0 0 0 -5 5 0 0. 9.
 15 1 1 2 0 0 -3.56479 -0.92902 2.87602 5 1.7768 0. 1
 -15 1 1 2 0 0 3.56479 0.92902 -2.87602 5 1.7768 0. -1
</event>
<event>
 4 80 1 -1 -1 -1
 11 -1 0 0 0 0 0 0 5 5 0 0. 9.
 -11 -1 0 0 0 0 0 0 -5 5 0 0. 9.
 15 1 1 2 0 0 -1.21082 4.4272 -0.880928 5 1.7768 0. -1
 -15 1 1 2 0 0 1.21082 -4.4272 0.88093 5 1.7768 0. 1
</event>
<event>
 4 80 1 -1 -1 -1
 11 -1 0 0 0 0 0 0 4.99989 4.99989 0 0. 9.
 -11 -1 0 0 0 0 0 0 -4.99945 4.99945 0 0. 9.
 15 1 1 2 0 0 -3.41641 -2.32046 2.18714 4.99977 1.7768 0. 1
 -15 1 1 2 0 0 3.41641 2.32046 -2.18669 4.99957 1.7768 0. -1
</event>
<event>
 4 80 1 -1 -1 -1
 11 -1 0 0 0 0 0 0 5 5 0 0. 9.
 -11 -1 0 0 0 0 0 0 -5 5 0 0. 9.
 15 1 1 2 0 0 2.88378 0.496946 -3.64405 5 1.7768 0. 1
 -15 1 1 2 0 0 -2.88378 -0.496946 3.64405 5 1.7768 0. -1
</event>
<event>
 4 80 1 -1 -1 -1
 11 -1 0 0 0 0 0 0 4.96545 4.96545 0 0. 9.
 -11 -1 0 0 0 0 0 0 -5 5 0 0. 9.
 15 1 1 2 0 0 3.96731 2.40974 -0.368222 4.98394 1.7768 0. 1
 -15 1 1 2 0 0 -3.96731 -2.40974 0.333672 4.98151 1.7768 0. -1
</event>
<event>
 4 80 1 -1 -1 -1
 11 -1 0 0 0 0 0 0 4.99876 4.99876 0 0. 9.
 -11 -1 0 0 0 0 0 0 -5 5 0 0. 9.
 15 1 1 2 0 0 -3.27424 -3.07711 1.28264 4.99922 1.7768 0. -1
 -15 1 1 2 0 0 3.27424 3.07711 -1.28388 4.99954 1.7768 0. 1
</event>
<event>
 4 80 1 -1 -1 -1
 11 -1 0 0 0 0 0 0 5 5 0 0. 9.
 -11 -1 0 0 0 0 0 0 -2.07127 2.07127 0 0. 9.
 15 1 1 2 0 0 -2.59019 -0.0620638 2.23003 3.85276 1.7768 0. 1
 -15 1 1 2 0 0 2.59019 0.0620638 0.698694 3.21852 1.7768 0. -1
</event>
<event>
 4 80 1 -1 -1 -1
 11 -1 0 0 0 0 0 0 5 5 0 0. 9.
 -11 -1 0 0 0 0 0 0 -5 5 0 0. 9.
 15 1 1 2 0 0 -2.89277 -0.172342 -3.66667 5 1.7768 0. 1
 -15 1 1 2 0 0 2.89277 0.172342 3.66666 5 1.7768 0. -1
</event>
<event>
 4 80 1 -1 -1 -1
 11 -1 0 0 0 0 0 0 4.98094 4.98094 0 0. 9.
 -11 -1 0 0 0 0 0 0 -5 5 0 0. 9.
 15 1 1 2 0 0 4.00825 2.21345 0.874504 4.98878 1.7768 0. 1
 -15 1 1 2 0 0 -4.00825 -2.21345 -0.893568 4.99216 1.7768 0. -1
</event>
<event>
 4 80 1 -1 -1 -1
 11 -1 0 0 0 0 0 0 5 5 0 0. 9.
 -11 -1 0 0 0 0 0 0 -5 5 0 0. 9.
 15 1 1 2 0 0 -1.34517 2.91548 -3.39599 5 1.7768 0. 1
 -15 1 1 2 0 0 1.34517 -2.91548 3.39599 5 1.7768 0. -1
</event>
<event>
 4 80 1 -1 -1 -1
 11 -1 0 0 0 0 0 0 5 5 0 0. 9.
 -11 -1 0 0 0 0 0 0 -5 5 0 0. 9.
 15 1 1 2 0 0 -3.23546 2.63052 -2.11055 5 1.7768 0. 1
 -15 1 1 2 0 0 3.23546 -2.63052 2.11055 5 1.7768 0. -1
</event>
<event>
 4 80 1 -1 -1 -1
 11 -1 0 0 0 0 0 0 3.85473 3.85473 0 0. 9.
 -11 -1 0 0 0 0 0 0 -4.99999 4.99999 0 0. 9.
 15 1 1 2 0 0 -1.62246 1.1457 -4.09086 4.8824 1.7768 0. -1
 -15 1 1 2 0 0 1.62246 -1.1457 2.9456 3.97232 1.7768 0. 1
</event>
<event>
 4 80 1 -1 -1 -1
 11 -1 0 0 0 0 0 0 4.99744 4.99744 0 0. 9.
 -11 -1 0 0 0 0 0 0 -5 5 0 0. 9.
 15 1 1 2 0 0 -2.57987 -3.06774 2.39928 4.9981 1.7768 0. -1
 -15 1 1 2 0 0 2.57987 3.06774 -2.40184 4.99933 1.7768 0. 1
</event>
<event>
 4 80 1 -1 -1 -1
 11 -1 0 0 0 0 0 0 5 5 0 0. 9.
 -11 -1 0 0 0 0 0 0 -5 5 0 0. 9.
 15 1 1 2 0 0 4.22165 -1.986 -0.275262 5 1.7768 0. -1
 -15 1 1 2 0 0 -4.22165 1.986 0.275262 5 1.7768 0. 1
</event>
<event>
 4 80 1 -1 -1 -1
 11 -1 0 0 0 0 0 0 5 5 0 0. 9.
 -11 -1 0 0 0 0 0 0 -5 5 0 0. 9.
 15 1 1 2 0 0 -0.358325 3.29844 -3.29153 5 1.7768 0. -1
 -15 1 1 2 0 0 0.358325 -3.29844 3.29153 5 1.7768 0. 1
</event>
<event>
 4 80 1 -1 -1 -1
 11 -1 0 0 0 0 0 0 5 5 0 0. 9.
 -11 -1 0 0 0 0 0 0 -2.28988 2.28988 0 0. 9.
 15 1 1 2 0 0 -0.70722 -0.931644 -1.47935 2.5912 1.7768 0. 1
 -15 1 1 2 0 0 0.70722 0.931644 4.18947 4.69867 1.7768 0. -1
</event>
<event>
 4 80 1 -1 -1 -1
 11 -1 0 0 0 0 0 0 5 5 0 0. 9.
 -11 -1 0 0 0 0 0 0 -5 5 0 0. 9.
 15 1 1 2 0 0 4.2575 -0.66361 1.80986 5 1.7768 0. 1
 -15 1 1 2 0 0 -4.2575 0.66361 -1.80986 5 1.7768 0. -1
</event>
<event>
 4 80 1 -1 -1 -1
 11 -1 0 0 0 0 0 0 4.99637 4.99637 0 0. 9.
 -11 -1 0 0 0 0 0 0 -4.96151 4.96151 0 0. 9.
 15 1 1 2 0 0 1.87015 -4.23517 -0.427176 4.97738 1.7768 0. 1
 -15 1 1 2 0 0 -1.87015 4.23517 0.462045 4.9805 1.7768 0. -1
</event>
<event>
 4 80 1 -1 -1 -1
 11 -1 0 0 0 0 0 0 4.99987 4.99987 0 0. 9.
 -11 -1 0 0 0 0 0 0 -5 5 0 0. 9.
 15 1 1 2 0 0 1.66426 1.59432 -4.06577 4.99999 1.7768 0. -1
 -15 1 1 2 0 0 -1.66426 -1.59432 4.06565 4.99989 1.7768 0. 1
</event>
<event>
 4 80 1 -1 -1 -1
 11 -1 0 0 0 0 0 0 4.94078 4.94078 0 0. 9.
 -11 -1 0 0 0 0 0 0 -4.99983 4.99983 0 0. 9.
 15 1 1 2 0 0 3.19652 0.0116416 3.33616 4.95031 1.7768 0. -1
 -15 1 1 2 0 0 -3.19652 -0.0116416 -3.39521 4.9903 1.7768 0. 1
</event>
<event>
 4 80 1 -1 -1 -1
 11 -1 0 0 0 0 0 0 5 5 0 0. 9.
 -11 -1 0 0 0 0 0 0 -5 5 0 0. 9.
 15 1 1 2 0 0 4.4578 0.373254 1.35312 5 1.7768 0. 1
 -15 1 1 2 0 0 -4.4578 -0.373254 -1.35312 5 1.7768 0. -1
</event>
<event>
 4 80 1 -1 -1 -1
 11 -1 0 0 0 0 0 0 5 5 0 0. 9.
 -11 -1 0 0 0 0 0 0 -5 5 0 0. 9.
 15 1 1 2 0 0 -1.65643 -0.734697 -4.30799 5 1.7768 0. 1
 -15 1 1 2 0 0 1.65643 0.734697 4.30799 5 1.7768 0. -1
</event>
<event>
 4 80 1 -1 -1 -1
 11 -1 0 0 0 0 0 0 5 5 0 0. 9.
 -11 -1 0 0 0 0 0 0 -4.1011 4.1011 0 0. 9.
 15 1 1 2 0 0 3.90173 0.406391 1.856 4.68947 1.7768 0. 1
 -15 1 1 2 0 0 -3.90173 -0.406391 -0.957101 4.41162 1.7768 0. -1
</event>
<event>
 4 80 1 -1 -1 -1
 11 -1 0 0 0 0 0 0 5 5 0 0. 9.
 -11 -1 0 0 0 0 0 0 -4.99956 4.99956 0 0. 9.
 15 1 1 2 0 0 -4.63302 -0.134083 -0.597471 4.99976 1.7768 0. -1
 -15 1 1 2 0 0 4.63302 0.134083 0.597907 4.99981 1.7768 0. 1
</event>
<event>
 4 80 1 -1 -1 -1
 11 -1 0 0 0 0 0 0 5 5 0 0. 9.
 -11 -1 0 0 0 0 0 0 -5 5 0 0. 9.
 15 1 1 2 0 0 3.3765 -2.38221 2.18324 5 1.7768 0. -1
 -15 1 1 2 0 0 -3.3765 2.38221 -2.18324 5 1.7768 0. 1
</event>
<event>
 4 80 1 -1 -1 -1
 11 -1 0 0 0 0 0 0 5 5 0 0. 9.
 -11 -1 0 0 0 0 0 0 -0.978677 0.978677 0 0. 9.
 15 1 1 2 0 0 -0.62773 0.0482603 3.57455 4.04123 1.7768 0. -1
 -15 1 1 2 0 0 0.62773 -0.0482603 0.44677 1.93745 1.7768 0. 1
</event>
<event>
 4 80 1 -1 -1 -1
 11 -1 0 0 0 0 0 0 4.99998 4.99998 0 0. 9.
 -11 -1 0 0 0 0 0 0 -4.99868 4.99868 0 0. 9.
 15 1 1 2 0 0 1.84921 -3.08244 -2.98507 4.99894 1.7768 0. -1
 -15 1 1 2 0 0 -1.84921 3.08244 2.98638 4.99972 1.7768 0. 1
</event>
<event>
 4 80 1 -1 -1 -1
 11 -1 0 0 0 0 0 0 5 5 0 0. 9.
 -11 -1 0 0 0 0 0 0 -4.45469 4.45469 0 0. 9.
 15 1 1 2 0 0 2.5169 2.53311 2.79962 4.87309 1.7768 0. -1
 -15 1 1 2 0 0 -2.5169 -2.53311 -2.25431 4.5816 1.7768 0. 1
</event>
<event>
 4 80 1 -1 -1 -1
 11 -1 0 0 0 0 0 0 4.99525 4.99525 0 0. 9.
 -11 -1 0 0 0 0 0 0 -4.97357 4.97357 0 0. 9.
 15 1 1 2 0 0 3.54322 -1.83024 2.41549 4.98964 1.7768 0. 1
 -15 1 1 2 0 0 -3.54322 1.83024 -2.39381 4.97918 1.7768 0. -1
</event>
<event>
 4 80 1 -1 -1 -1
 11 -1 0 0 0 0 0 0 4.81725 4.81725 0 0. 9.
 -11 -1 0 0 0 0 0 0 -5 5 0 0. 9.
 15 1 1 2 0 0 1.56059 -4.00091 1.48555 4.87927 1.7768 0. 1
 -15 1 1 2 0 0 -1.56059 4.00091 -1.6683 4.93798 1.7768 0. -1
</event>
<event>
 4 80 1 -1 -1 -1
 11 -1 0 0 0 0 0 0 5 5 0 0. 9.
 -11 -1 0 0 0 0 0 0 -4.24715 4.24715 0 0. 9.
 15 1 1 2 0 0 -2.8813 -0.714037 3.43062 4.87223 1.7768 0. -1
 -15 1 1 2 0 0 2.8813 0.714037 -2.67777 4.37492 1.7768 0. 1
</event>
<event>
 4 80 1 -1 -1 -1
 11 -1 0 0 0 0 0 0 4.57745 4.57745 0 0. 9.
 -11 -1 0 0 0 0 0 0 -5 5 0 0. 9.
 15 1 1 2 0 0 2.69975 0.920421 3.197 4.63836 1.7768 0. 1
 -15 1 1 2 0 0 -2.69975 -0.920421 -3.61954 4.9391 1.7768 0. -1
</event>
<event>
 4 80 1 -1 -1 -1
 11 -1 0 0 0 0 0 0 5 5 0 0. 9.
 -11 -1 0 0 0 0 0 0 -5 5 0 0. 9.
 15 1 1 2 0 0 -2.90533 0.641617 -3.60411 5 1.7768 0. -1
 -15 1 1 2 0 0 2.90533 -0.641617 3.60412 5 1.7768 0. 1
</event>
<event>
 4 80 1 -1 -1 -1
 11 -1 0 0 0 0 0 0 4.99034 4.99034 0 0. 9.
 -11 -1 0 0 0 0 0 0 -5 5 0 0. 9.
 15 1 1 2 0 0 0.970926 -3.3809 3.06449 4.9922 1.7768 0. 1
 -15 1 1 2 0 0 -0.970926 3.3809 -3.07416 4.99814 1.7768 0. -1
</event>
<event>
 4 80 1 -1 -1 -1
 11 -1 0 0 0 0 0 0 4.99764 4.99764 0 0. 9.
 -11 -1 0 0 0 0 0 0 -5 5 0 0. 9.
 15 1 1 2 0 0 0.988065 -0.59249 4.52687 4.99775 1.7768 0. -1
 -15 1 1 2 0 0 -0.988065 0.59249 -4.52922 4.99989 1.7768 0. 1
</event>
<event>
 4 80 1 -1 -1 -1
 11 -1 0 0 0 0 0 0 5 5 0 0. 9.
 -11 -1 0 0 0 0 0 0 -4.99998 4.99998 0 0. 9.
 15 1 1 2 0 0 -3.74505 -0.778795 -2.68519 4.99998 1.7768 0. 1
 -15 1 1 2 0 0 3.74505 0.778795 2.68521 5 1.7768 0. -1
</event>
<event>
 4 80 1 -1 -1 -1
 11 -1 0 0 0 0 0 0 5 5 0 0. 9.
 -11 -1 0 0 0 0 0 0 -5 5 0 0. 9.
 15 1 1 2 0 0 3.8287 1.44462 -2.25751 5 1.7768 0. 1
 -15 1 1 2 0 0 -3.8287 -1.44462 2.25751 5 1.7768 0. -1
</event>
<event>
 4 80 1 -1 -1 -1
 11 -1 0 0 0 0 0 0 5 5 0 0. 9.
 -11 -1 0 0 0 0 0 0 -4.91812 4.91812 0 0. 9.
 15 1 1 2 0 0 1.41115 0.962793 -4.26206 4.92354 1.7768 0. -1
 -15 1 1 2 0 0 -1.41115 -0.962793 4.34394 4.99458 1.7768 0. 1
</event>
<event>
 4 80 1 -1 -1 -1
 11 -1 0 0 0 0 0 0 5 5 0 0. 9.
 -11 -1 0 0 0 0 0 0 -5 5 0 0. 9.
 15 1 1 2 0 0 3.1305 2.85061 -1.97896 5 1.7768 0. -1
 -15 1 1 2 0 0 -3.1305 -2.85061 1.97896 5 1.7768 0. 1
</event>
<event>
 4 80 1 -1 -1 -1
 11 -1 0 0 0 0 0 0 5 5 0 0. 9.
 -11 -1 0 0 0 0 0 0 -5 5 0 0. 9.
 15 1 1 2 0 0 -0.138784 -0.30762 -4.66137 5 1.7768 0. -1
 -15 1 1 2 0 0 0.138784 0.30762 4.66137 5 1.7768 0. 1
</event>
<event>
 4 80 1 -1 -1 -1
 11 -1 0 0 0 0 0 0 4.99102 4.99102 0 0. 9.
 -11 -1 0 0 0 0 0 0 -5 5 0 0. 9.
 15 1 1 2 0 0 -3.27384 -2.88501 1.65564 4.99402 1.7768 0. 1
 -15 1 1 2 0 0 3.27384 2.88501 -1.66462 4.997 1.7768 0. -1
</event>
<event>
 4 80 1 -1 -1 -1
 11 -1 0 0 0 0 0 0 4.99996 4.99996 0 0. 9.
 -11 -1 0 0 0 0 0 0 -5 5 0 0. 9.
 15 1 1 2 0 0 0.468063 -2.70866 -3.77972 5 1.7768 0. -1
 -15 1 1 2 0 0 -0.468063 2.70866 3.77969 4.99997 1.7768 0. 1
</event>
<event>
 4 80 1 -1 -1 -1
 11 -1 0 0 0 0 0 0 5 5 0 0. 9.
 -11 -1 0 0 0 0 0 0 -4.99578 4.99578 0 0. 9.
 15 1 1 2 0 0 1.12041 -1.60904 4.24202 4.99968 1.7768 0. -1
 -15 1 1 2 0 0 -1.12041 1.60904 -4.2378 4.9961 1.7768 0. 1
</event>
<event>
 4 80 1 -1 -1 -1
 11 -1 0 0 0 0 0 0 5 5 0 0. 9.
 -11 -1 0 0 0 0 0 0 -4.22579 4.22579 0 0. 9.
 15 1 1 2 0 0 2.65481 -0.284823 3.69149 4.89019 1.7768 0. 1
 -15 1 1 2 0 0 -2.65481 0.284823 -2.91728 4.33559 1.7768 0. -1
</event>
<event>
 4 80 1 -1 -1 -1
 11 -1 0 0 0 0 0 0 5 5 0 0. 9.
 -11 -1 0 0 0 0 0 0 -3.46537 3.46537 0 0. 9.
 15 1 1 2 0 0 -1.27177 -3.10427 2.50349 4.54743 1.7768 0. 1
 -15 1 1 2 0 0 1.27177 3.10427 -0.96886 3.91795 1.7768 0. -1
</event>
<event>
 4 80 1 -1 -1 -1
 11 -1 0 0 0 0 0 0 4.99923 4.99923 0 0. 9.
 -11 -1 0 0 0 0 0 0 -4.93956 4.93956 0 0. 9.
 15 1 1 2 0 0 0.958822 1.54047 -4.24153 4.94376 1.7768 0. -1
 -15 1 1 2 0 0 -0.958822 -1.54047 4.3012 4.99504 1.7768 0. 1
</event>
<event>
 4 80 1 -1 -1 -1
 11 -1 0 0 0 0 0 0 1.07376 1.07376 0 0. 9.
 -11 -1 0 0 0 0 0 0 -4.5849 4.5849 0 0. 9.
 15 1 1 2 0 0 -0.369294 0.852777 -2.96648 3.58069 1.7768 0. 1
 -15 1 1 2 0 0 0.369294 -0.852777 -0.544663 2.07798 1.7768 0. -1
</event>
<event>
 4 80 1 -1 -1 -1
 11 -1 0 0 0 0 0 0 5 5 0 0. 9.
 -11 -1 0 0 0 0 0 0 -5 5 0 0. 9.
 15 1 1 2 0 0 0.845215 -2.72284 3.70325 5 1.7768 0. -1
 -15 1 1 2 0 0 -0.845215 2.72284 -3.70325 5 1.7768 0. 1
</event>
<event>
 4 80 1 -1 -1 -1
 11 -1 0 0 0 0 0 0 5 5 0 0. 9.
 -11 -1 0 0 0 0 0 0 -4.9997 4.9997 0 0. 9.
 15 1 1 2 0 0 -2.88593 -2.64724 -2.5502 4.99977 1.7768 0. 1
 -15 1 1 2 0 0 2.88593 2.64724 2.5505 4.99993 1.7768 0. -1
</event>
<event>
 4 80 1 -1 -1 -1
 11 -1 0 0 0 0 0 0 5 5 0 0. 9.
 -11 -1 0 0 0 0 0 0 -5 5 0 0. 9.
 15 1 1 2 0 0 -4.19085 0.32274 2.04325 5 1.7768 0. 1
 -15 1 1 2 0 0 4.19085 -0.32274 -2.04325 5 1.7768 0. -1
</event>
<event>
 4 80 1 -1 -1 -1
 11 -1 0 0 0 0 0 0 4.86716 4.86716 0 0. 9.
 -11 -1 0 0 0 0 0 0 -4.99999 4.99999 0 0. 9.
 15 1 1 2 0 0 0.458779 4.42056 -1.26077 4.94966 1.7768 0. -1
 -15 1 1 2 0 0 -0.458779 -4.42056 1.12794 4.9175 1.7768 0. 1
</event>
<event>
 4 80 1 -1 -1 -1
 11 -1 0 0 0 0 0 0 4.9862 4.9862 0 0. 9.
 -11 -1 0 0 0 0 0 0 -3.79838 3.79838 0 0. 9.
 15 1 1 2 0 0 -1.74336 3.24202 -0.913841 4.18842 1.7768 0. -1
 -15 1 1 2 0 0 1.74336 -3.24202 2.10166 4.59616 1.7768 0. 1
</event>
<event>
 4 80 1 -1 -1 -1
 11 -1 0 0 0 0 0 0 4.99636 4.99636 0 0. 9.
 -11 -1 0 0 0 0 0 0 -5 5 0 0. 9.
 15 1 1 2 0 0 0.746912 3.84236 -2.55181 4.99911 1.7768 0. 1
 -15 1 1 2 0 0 -0.746912 -3.84236 2.54816 4.99725 1.7768 0. -1
</event>
<event>
 4 80 1 -1 -1 -1
 11 -1 0 0 0 0 0 0 4.99976 4.99976 0 0. 9.
 -11 -1 0 0 0 0 0 0 -5 5 0 0. 9.
 15 1 1 2 0 0 3.08634 -3.14328 -1.56068 4.99992 1.7768 0. -1
 -15 1 1 2 0 0 -3.08634 3.14328 1.56044 4.99984 1.7768 0. 1
</event>
<event>
 4 80 1 -1 -1 -1
 11 -1 0 0 0 0 0 0 1.28476 1.28476 0 0. 9.
 -11 -1 0 0 0 0 0 0 -4.99539 4.99539 0 0. 9.
 15 1 1 2 0 0 -0.0792638 0.62572 0.241708 1.90104 1.7768 0. -1
 -15 1 1 2 0 0 0.0792638 -0.62572 -3.95234 4.3791 1.7768 0. 1
</event>
<event>
 4 80 1 -1 -1 -1
 11 -1 0 0 0 0 0 0 5 5 0 0. 9.
 -11 -1 0 0 0 0 0 0 -5 5 0 0. 9.
 15 1 1 2 0 0 -3.65435 -0.982496 -2.74276 5 1.7768 0. -1
 -15 1 1 2 0 0 3.65435 0.982496 2.74276 5 1.7768 0. 1
</event>
<event>
 4 80 1 -1 -1 -1
 11 -1 0 0 0 0 0 0 5 5 0 0. 9.
 -11 -1 0 0 0 0 0 0 -5 5 0 0. 9.
 15 1 1 2 0 0 -0.394003 2.4018 -3.98979 5 1.7768 0. -1
 -15 1 1 2 0 0 0.394003 -2.4018 3.98979 5 1.7768 0. 1
</event>
<event>
 4 80 1 -1 -1 -1
 11 -1 0 0 0 0 0 0 5 5 0 0. 9.
 -11 -1 0 0 0 0 0 0 -4.98225 4.98225 0 0. 9.
 15 1 1 2 0 0 -1.14494 -1.68735 4.20358 4.99858 1.7768 0. 1
 -15 1 1 2 0 0 1.14494 1.68735 -4.18583 4.98367 1.7768 0. -1
</event>
<event>
 4 80 1 -1 -1 -1
 11 -1 0 0 0 0 0 0 5 5 0 0. 9.
 -11 -1 0 0 0 0 0 0 -5 5 0 0. 9.
 15 1 1 2 0 0 2.89605 -1.06221 -3.51097 5 1.7768 0. -1
 -15 1 1 2 0 0 -2.89605 1.06221 3.51097 5 1.7768 0. 1
</event>
<event>
 4 80 1 -1 -1 -1
 11 -1 0 0 0 0 0 0 5 5 0 0. 9.
 -11 -1 0 0 0 0 0 0 -4.93306 4.93306 0 0. 9.
 15 1 1 2 0 0 0.409566 -2.65461 -3.74721 4.94106 1.7768 0. 1
 -15 1 1 2 0 0 -0.409566 2.65461 3.81414 4.99201 1.7768 0. -1
</event>
<event>
 4 80 1 -1 -1 -1
 11 -1 0 0 0 0 0 0 4.86339 4.86339 0 0. 9.
 -11 -1 0 0 0 0 0 0 -5 5 0 0. 9.
 15 1 1 2 0 0 -2.2921 -0.346222 -4.0418 4.98673 1.7768 0. -1
 -15 1 1 2 0 0 2.2921 0.346222 3.90519 4.87666 1.7768 0. 1
</event>
<event>
 4 80 1 -1 -1 -1
 11 -1 0 0 0 0 0 0 2.19404 2.19404 0 0. 9.
 -11 -1 0 0 0 0 0 0 -4.99976 4.99976 0 0. 9.
 15 1 1 2 0 0 -2.32034 -0.437947 0.221131 2.96351 1.7768 0. 1
 -15 1 1 2 0 0 2.32034 0.437947 -3.02685 4.23029 1.7768 0. -1
</event>
<event>
 4 80 1 -1 -1 -1
 11 -1 0 0 0 0 0 0 2.76387 2.76387 0 0. 9.
 -11 -1 0 0 0 0 0 0 -5 5 0 0. 9.
 15 1 1 2 0 0 1.17371 -3.04482 -0.998426 3.84748 1.7768 0. 1
 -15 1 1 2 0 0 -1.17371 3.04482 -1.2377 3.91639 1.7768 0. -1
</event>
<event>
 4 80 1 -1 -1 -1
 11 -1 0 0 0 0 0 0 5 5 0 0. 9.
 -11 -1 0 0 0 0 0 0 -4.28599 4.28599 0 0. 9.
 15 1 1 2 0 0 -1.51067 -0.649376 -3.60039 4.33871 1.7768 0. 1
 -15 1 1 2 0 0 1.51067 0.649376 4.3144 4.94728 1.7768 0. -1
</event>
<event>
 4 80 1 -1 -1 -1
 11 -1 0 0 0 0 0 0 5 5 0 0. 9.
 -11 -1 0 0 0 0 0 0 -4.9868 4.9868 0 0. 9.
 15 1 1 2 0 0 4.27468 1.87169 -0.00762184 4.99338 1.7768 0. 1
 -15 1 1 2 0 0 -4.27468 -1.87169 0.0208211 4.99342 1.7768 0. -1
</event>
<event>
 4 80 1 -1 -1 -1
 11 -1 0 0 0 0 0 0 4.07824 4.07824 0 0. 9.
 -11 -1 0 0 0 0 0 0 -5 5 0 0. 9.
 15 1 1 2 0 0 -0.381964 1.60225 -4.29123 4.92804 1.7768 0. 1
 -15 1 1 2 0 0 0.381964 -1.60225 3.36948 4.15021 1.7768 0. -1
</event>
<event>
 4 80 1 -1 -1 -1
 11 -1 0 0 0 0 0 0 4.9971 4.9971 0 0. 9.
 -11 -1 0 0 0 0 0 0 -5 5 0 0. 9.
 15 1 1 2 0 0 -4.39346 0.922842 -1.29512 4.99892 1.7768 0. -1
 -15 1 1 2 0 0 4.39346 -0.922842 1.29222 4.99817 1.7768 0. 1
</event>
<event>
 4 80 1 -1 -1 -1
 11 -1 0 0 0 0 0 0 2.40677 2.40677 0 0. 9.
 -11 -1 0 0 0 0 0 0 -5 5 0 0. 9.
 15 1 1 2 0 0 0.498284 0.295579 1.82326 2.61106 1.7768 0. -1
 -15 1 1 2 0 0 -0.498284 -0.295579 -4.41649 4.7957 1.7768 0. 1
</event>
<event>
 4 80 1 -1 -1 -1
 11 -1 0 0 0 0 0 0 4.99995 4.99995 0 0. 9.
 -11 -1 0 0 0 0 0 0 -5 5 0 0. 9.
 15 1 1 2 0 0 1.07922 2.89193 3.50911 4.99995 1.7768 0. 1
 -15 1 1 2 0 0 -1.07922 -2.89193 -3.50916 4.99999 1.7768 0. -1
</event>
<event>
 4 80 1 -1 -1 -1
 11 -1 0 0 0 0 0 0 5 5 0 0. 9.
 -11 -1 0 0 0 0 0 0 -4.77632 4.77632 0 0. 9.
 15 1 1 2 0 0 -4.29162 1.49807 0.360138 4.89384 1.7768 0. -1
 -15 1 1 2 0 0 4.29162 -1.49807 -0.136453 4.88248 1.7768 0. 1
</event>
<event>
 4 80 1 -1 -1 -1
 11 -1 0 0 0 0 0 0 4.99973 4.99973 0 0. 9.
 -11 -1 0 0 0 0 0 0 -3.52195 3.52195 0 0. 9.
 15 1 1 2 0 0 -3.66495 -0.0457012 -0.285152 4.08326 1.7768 0. -1
 -15 1 1 2 0 0 3.66495 0.0457012 1.76294 4.43843 1.7768 0. 1
</event>
<event>
 4 80 1 -1 -1 -1
 11 -1 0 0 0 0 0 0 5 5 0 0. 9.
 -11 -1 0 0 0 0 0 0 -4.99892 4.99892 0 0. 9.
 15 1 1 2 0 0 3.54948 1.35128 2.72306 4.99975 1.7768 0. 1
 -15 1 1 2 0 0 -3.54948 -1.35128 -2.72199 4.99917 1.7768 0. -1
</event>
<event>
 4 80 1 -1 -1 -1
 11 -1 0 0 0 0 0 0 4.99999 4.99999 0 0. 9.
 -11 -1 0 0 0 0 0 0 -5 5 0 0. 9.
 15 1 1 2 0 0 2.74644 3.45692 -1.53263 5 1.7768 0. 1
 -15 1 1 2 0 0 -2.74644 -3.45692 1.53262 4.99999 1.7768 0. -1
</event>
<event>
 4 80 1 -1 -1 -1
 11 -1 0 0 0 0 0 0 5 5 0 0. 9.
 -11 -1 0 0 0 0 0 0 -4.99801 4.99801 0 0. 9.
 15 1 1 2 0 0 2.23483 1.58384 3.7864 4.99976 1.7768 0. -1
 -15 1 1 2 0 0 -2.23483 -1.58384 -3.78441 4.99825 1.7768 0. 1
</event>
<event>
 4 80 1 -1 -1 -1
 11 -1 0 0 0 0 0 0 4.99689 4.99689 0 0. 9.
 -11 -1 0 0 0 0 0 0 -4.94038 4.94038 0 0. 9.
 15 1 1 2 0 0 0.356197 -3.67938 2.8326 4.98459 1.7768 0. 1
 -15 1 1 2 0 0 -0.356197 3.67938 -2.77608 4.95269 1.7768 0. -1
</event>
<event>
 4 80 1 -1 -1 -1
 11 -1 0 0 0 0 0 0 4.99961 4.99961 0 0. 9.
 -11 -1 0 0 0 0 0 0 -4.99829 4.99829 0 0. 9.
 15 1 1 2 0 0 0.350247 0.357125 4.64625 4.99956 1.7768 0. 1
 -15 1 1 2 0 0 -0.350247 -0.357125 -4.64494 4.99834 1.7768 0. -1
</event>
<event>
 4 80 1 -1 -1 -1
 11 -1 0 0 0 0 0 0 4.98897 4.98897 0 0. 9.
 -11 -1 0 0 0 0 0 0 -4.99985 4.99985 0 0. 9.
 15 1 1 2 0 0 1.64821 -0.0969885 4.36039 4.98966 1.7768 0. 1
 -15 1 1 2 0 0 -1.64821 0.0969885 -4.37126 4.99916 1.7768 0. -1
</event>
<event>
 4 80 1 -1 -1 -1
 11 -1 0 0 0 0 0 0 5 5 0 0. 9.
 -11 -1 0 0 0 0 0 0 -5 5 0 0. 9.
 15 1 1 2 0 0 3.31559 3.29323 -0.0613514 5 1.7768 0. -1
 -15 1 1 2 0 0 -3.31559 -3.29323 0.0613514 5 1.7768 0. 1
</event>
<event>
 4 80 1 -1 -1 -1
 11 -1 0 0 0 0 0 0 0.894844 0.894844 0 0. 9.
 -11 -1 0 0 0 0 0 0 -4.99681 4.99681 0 0. 9.
 15 1 1 2 0 0 0.682796 -0.334751 -0.856336 2.11407 1.7768 0. 1
 -15 1 1 2 0 0 -0.682796 0.334751 -3.24563 3.77758 1.7768 0. -1
</event>
<event>
 4 80 1 -1 -1 -1
 11 -1 0 0 0 0 0 0 5 5 0 0. 9.
 -11 -1 0 0 0 0 0 0 -5 5 0 0. 9.
 15 1 1 2 0 0 2.84424 -3.60776 0.858279 5 1.7768 0. 1
 -15 1 1 2 0 0 -2.84424 3.60776 -0.858279 5 1.7768 0. -1
</event>
<event>
 4 80 1 -1 -1 -1
 11 -1 0 0 0 0 0 0 4.90609 4.90609 0 0. 9.
 -11 -1 0 0 0 0 0 0 -5 5 0 0. 9.
 15 1 1 2 0 0 -3.06599 0.83232 -3.40563 4.98489 1.7768 0. 1
 -15 1 1 2 0 0 3.06599 -0.83232 3.31172 4.92121 1.7768 0. -1
</event>
<event>
 4 80 1 -1 -1 -1
 11 -1 0 0 0 0 0 0 4.99928 4.99928 0 0. 9.
 -11 -1 0 0 0 0 0 0 -5 5 0 0. 9.
 15 1 1 2 0 0 -2.85795 -0.548217 -3.65689 4.9999 1.7768 0. -1
 -15 1 1 2 0 0 2.85795 0.548217 3.65618 4.99938 1.7768 0. 1
</event>
<event>
 4 80 1 -1 -1 -1
 11 -1 0 0 0 0 0 0 5 5 0 0. 9.
 -11 -1 0 0 0 0 0 0 -5 5 0 0. 9.
 15 1 1 2 0 0 -0.97766 -4.41791 1.16984 5 1.7768 0. -1
 -15 1 1 2 0 0 0.97766 4.41791 -1.16984 5 1.7768 0. 1
</event>
<event>
 4 80 1 -1 -1 -1
 11 -1 0 0 0 0 0 0 5 5 0 0. 9.
 -11 -1 0 0 0 0 0 0 -5 5 0 0. 9.
 15 1 1 2 0 0 -3.06971 -0.113712 -3.52225 5 1.7768 0. -1
 -15 1 1 2 0 0 3.06971 0.113712 3.52225 5 1.7768 0. 1
</event>
<event>
 4 80 1 -1 -1 -1
 11 -1 0 0 0 0 0 0 5 5 0 0. 9.
 -11 -1 0 0 0 0 0 0 -4.90059 4.90059 0 0. 9.
 15 1 1 2 0 0 3.5446 -1.10006 2.80137 4.97792 1.7768 0. -1
 -15 1 1 2 0 0 -3.5446 1.10006 -2.70196 4.92267 1.7768 0. 1
</event>
<event>
 4 80 1 -1 -1 -1
 11 -1 0 0 0 0 0 0 5 5 0 0. 9.
 -11 -1 0 0 0 0 0 0 -5 5 0 0. 9.
 15 1 1 2 0 0 -0.38011 1.95681 4.22714 5 1.7768 0. -1
 -15 1 1 2 0 0 0.38011 -1.95681 -4.22714 5 1.7768 0. 1
</event>
<event>
 4 80 1 -1 -1 -1
 11 -1 0 0 0 0 0 0 4.99968 4.99968 0 0. 9.
 -11 -1 0 0 0 0 0 0 -4.99841 4.99841 0 0. 9.
 15 1 1 2 0 0 -0.281304 -4.64613 0.409313 4.99909 1.7768 0. -1
 -15 1 1 2 0 0 0.281304 4.64613 -0.408046 4.99899 1.7768 0. 1
</event>
<event>
 4 80 1 -1 -1 -1
 11 -1 0 0 0 0 0 0 5 5 0 0. 9.
 -11 -1 0 0 0 0 0 0 -5 5 0 0. 9.
 15 1 1 2 0 0 -2.78347 2.86548 2.42561 5 1.7768 0. -1
 -15 1 1 2 0 0 2.78347 -2.86548 -2.42561 5 1.7768 0. 1
</event>
<event>
 4 80 1 -1 -1 -1
 11 -1 0 0 0 0 0 0 4.99999 4.99999 0 0. 9.
 -11 -1 0 0 0 0 0 0 -4.99995 4.99995 0 0. 9.
 15 1 1 2 0 0 1.88769 2.67938 3.33162 4.99999 1.7768 0. -1
 -15 1 1 2 0 0 -1.88769 -2.67938 -3.33157 4.99996 1.7768 0. 1
</event>
<event>
 4 80 1 -1 -1 -1
 11 -1 0 0 0 0 0 0 4.99864 4.99864 0 0. 9.
 -11 -1 0 0 0 0 0 0 -5 5 0 0. 9.
 15 1 1 2 0 0 1.81141 3.65935 -2.27299 4.99963 1.7768 0. 1
 -15 1 1 2 0 0 -1.81141 -3.65935 2.27163 4.99901 1.7768 0. -1
</event>
<event>
 4 80 1 -1 -1 -1
 11 -1 0 0 0 0 0 0 4.66186 4.66186 0 0. 9.
 -11 -1 0 0 0 0 0 0 -5 5 0 0. 9.
 15 1 1 2 0 0 1.9016 1.61156 3.56663 4.70019 1.7768 0. -1
 -15 1 1 2 0 0 -1.9016 -1.61156 -3.90477 4.96167 1.7768 0. 1
</event>
<event>
 4 80 1 -1 -1 -1
 11 -1 0 0 0 0 0 0 4.99955 4.99955 0 0. 9.
 -11 -1 0 0 0 0 0 0 -5 5 0 0. 9.
 15 1 1 2 0 0 4.52483 -1.14108 -0.2529 4.99978 1.7768 0. 1
 -15 1 1 2 0 0 -4.52483 1.14108 0.252445 4.99976 1.7768 0. -1
</event>
<event>
 4 80 1 -1 -1 -1
 11 -1 0 0 0 0 0 0 5 5 0 0. 9.
 -11 -1 0 0 0 0 0 0 -4.46678 4.46678 0 0. 9.
 15 1 1 2 0 0 -2.89367 2.59165 -1.75804 4.61935 1.7768 0. 1
 -15 1 1 2 0 0 2.89367 -2.59165 2.29126 4.84743 1.7768 0. -1
</event>
<event>
 4 80 1 -1 -1 -1
 11 -1 0 0 0 0 0 0 5 5 0 0. 9.
 -11 -1 0 0 0 0 0 0 -4.9987 4.9987 0 0. 9.
 15 1 1 2 0 0 1.94882 -3.68715 -2.10715 4.99908 1.7768 0. 1
 -15 1 1 2 0 0 -1.94882 3.68715 2.10845 4.99962 1.7768 0. -1
</event>
<event>
 4 80 1 -1 -1 -1
 11 -1 0 0 0 0 0 0 4.996 4.996 0 0. 9.
 -11 -1 0 0 0 0 0 0 -5 5 0 0. 9.
 15 1 1 2 0 0 4.01183 -0.131979 -2.39158 4.99896 1.7768 0. -1
 -15 1 1 2 0 0 -4.01183 0.131979 2.38759 4.99705 1.7768 0. 1
</event>
<event>
 4 80 1 -1 -1 -1
 11 -1 0 0 0 0 0 0 5 5 0 0. 9.
 -11 -1 0 0 0 0 0 0 -5 5 0 0. 9.
 15 1 1 2 0 0 -3.0572 -0.76447 3.45129 5 1.7768 0. -1
 -15 1 1 2 0 0 3.0572 0.76447 -3.45129 5 1.7768 0. 1
</event>
<event>
 4 80 1 -1 -1 -1
 11 -1 0 0 0 0 0 0 5 5 0 0. 9.
 -11 -1 0 0 0 0 0 0 -5 5 0 0. 9.
 15 1 1 2 0 0 1.13864 4.07476 1.98547 5 1.7768 0. -1
 -15 1 1 2 0 0 -1.13864 -4.07476 -1.98547 5 1.7768 0. 1
</event>
<event>
 4 80 1 -1 -1 -1
 11 -1 0 0 0 0 0 0 5 5 0 0. 9.
 -11 -1 0 0 0 0 0 0 -5 5 0 0. 9.
 15 1 1 2 0 0 -3.0595 2.07575 -2.85885 5 1.7768 0. 1
 -15 1 1 2 0 0 3.0595 -2.07575 2.85885 5 1.7768 0. -1
</event>
<event>
 4 80 1 -1 -1 -1
 11 -1 0 0 0 0 0 0 5 5 0 0. 9.
 -11 -1 0 0 0 0 0 0 -1.75272 1.75272 0 0. 9.
 15 1 1 2 0 0 0.686756 -1.86715 0.159482 2.67227 1.7768 0. -1
 -15 1 1 2 0 0 -0.686756 1.86715 3.0878 4.08045 1.7768 0. 1
</event>
<event>
 4 80 1 -1 -1 -1
 11 -1 0 0 0 0 0 0 4.9998 4.9998 0 0. 9.
 -11 -1 0 0 0 0 0 0 -5 5 0 0. 9.
 15 1 1 2 0 0 -0.352548 1.09382 -4.53006 4.99999 1.7768 0. 1
 -15 1 1 2 0 0 0.352548 -1.09382 4.52986 4.99981 1.7768 0. -1
</event>
<event>
 4 80 1 -1 -1 -1
 11 -1 0 0 0 0 0 0 5 5 0 0. 9.
 -11 -1 0 0 0 0 0 0 -3.5901 3.5901 0 0. 9.
 15 1 1 2 0 0 1.85843 3.15714 -0.482242 4.1002 1.7768 0. 1
 -15 1 1 2 0 0 -1.85843 -3.15714 1.89214 4.4899 1.7768 0. -1
</event>
<event>
 4 80 1 -1 -1 -1
 11 -1 0 0 0 0 0 0 4.92743 4.92743 0 0. 9.
 -11 -1 0 0 0 0 0 0 -5 5 0 0. 9.
 15 1 1 2 0 0 -3.04792 -2.85708 -2.043 4.97838 1.7768 0. 1
 -15 1 1 2 0 0 3.04792 2.85708 1.97043 4.94905 1.7768 0. -1
</event>
<event>
 4 80 1 -1 -1 -1
 11 -1 0 0 0 0 0 0 4.99974 4.99974 0 0. 9.
 -11 -1 0 0 0 0 0 0 -4.9999 4.9999 0 0. 9.
 15 1 1 2 0 0 -3.2676 1.79636 -2.81724 4.99986 1.7768 0. 1
 -15 1 1 2 0 0 3.2676 -1.79636 2.81709 4.99978 1.7768 0. -1
</event>
<event>
 4 80 1 -1 -1 -1
 11 -1 0 0 0 0 0 0 5 5 0 0. 9.
 -11 -1 0 0 0 0 0 0 -5 5 0 0. 9.
 15 1 1 2 0 0 1.22761 0.450011 -4.48695 5 1.7768 0. 1
 -15 1 1 2 0 0 -1.22761 -0.450011 4.48695 5 1.7768 0. -1
</event>
<event>
 4 80 1 -1 -1 -1
 11 -1 0 0 0 0 0 0 4.9829 4.9829 0 0. 9.
 -11 -1 0 0 0 0 0 0 -5 5 0 0. 9.
 15 1 1 2 0 0 -2.73123 -0.148141 3.76971 4.98498 1.7768 0. 1
 -15 1 1 2 0 0 2.73123 0.148141 -3.78681 4.99792 1.7768 0. -1
</event>
<event>
 4 80 1 -1 -1 -1
 11 -1 0 0 0 0 0 0 4.99783 4.99783 0 0. 9.
 -11 -1 0 0 0 0 0 0 -4.5089 4.5089 0 0. 9.
 15 1 1 2 0 0 -2.62695 -3.52211 -0.0220684 4.73966 1.7768 0. -1
 -15 1 1 2 0 0 2.62695 3.52211 0.511007 4.76707 1.7768 0. 1
</event>
<event>
 4 80 1 -1 -1 -1
 11 -1 0 0 0 0 0 0 4.7029 4.7029 0 0. 9.
 -11 -1 0 0 0 0 0 0 -4.50666 4.50666 0 0. 9.
 15 1 1 2 0 0 -1.98958 -0.94067 3.73121 4.6822 1.7768 0. -1
 -15 1 1 2 0 0 1.98958 0.94067 -3.53497 4.52737 1.7768 0. 1
</event>
<event>
 4 80 1 -1 -1 -1
 11 -1 0 0 0 0 0 0 5 5 0 0. 9.
 -11 -1 0 0 0 0 0 0 -5 5 0 0. 9.
 15 1 1 2 0 0 4.38278 -1.29594 0.976766 5 1.7768 0. -1
 -15 1 1 2 0 0 -4.38278 1.29594 -0.976766 5 1.7768 0. 1
</event>
<event>
 4 80 1 -1 -1 -1
 11 -1 0 0 0 0 0 0 5 5 0 0. 9.
 -11 -1 0 0 0 0 0 0 -5 5 0 0. 9.
 15 1 1 2 0 0 -1.01787 -1.71776 -4.22558 5 1.7768 0. -1
 -15 1 1 2 0 0 1.01787 1.71776 4.22558 5 1.7768 0. 1
</event>
<event>
 4 80 1 -1 -1 -1
 11 -1 0 0 0 0 0 0 5 5 0 0. 9.
 -11 -1 0 0 0 0 0 0 -5 5 0 0. 9.
 15 1 1 2 0 0 -2.93346 -1.8849 3.11195 5 1.7768 0. -1
 -15 1 1 2 0 0 2.93346 1.8849 -3.11195 5 1.7768 0. 1
</event>
<event>
 4 80 1 -1 -1 -1
 11 -1 0 0 0 0 0 0 4.84093 4.84093 0 0. 9.
 -11 -1 0 0 0 0 0 0 -4.29031 4.29031 0 0. 9.
 15 1 1 2 0 0 0.71734 -0.544878 4.38155 4.81323 1.7768 0. -1
 -15 1 1 2 0 0 -0.71734 0.544878 -3.83093 4.31801 1.7768 0. 1
</event>
<event>
 4 80 1 -1 -1 -1
 11 -1 0 0 0 0 0 0 5 5 0 0. 9.
 -11 -1 0 0 0 0 0 0 -4.26482 4.26482 0 0. 9.
 15 1 1 2 0 0 -0.854304 4.16202 0.0286659 4.60552 1.7768 0. 1
 -15 1 1 2 0 0 0.854304 -4.16202 0.706512 4.65931 1.7768 0. -1
</event>
<event>
 4 80 1 -1 -1 -1
 11 -1 0 0 0 0 0 0 5 5 0 0. 9.
 -11 -1 0 0 0 0 0 0 -5 5 0 0. 9.
 15 1 1 2 0 0 -2.70198 -0.836834 -3.72039 5 1.7768 0. -1
 -15 1 1 2 0 0 2.70198 0.836834 3.72039 5 1.7768 0. 1
</event>
<event>
 4 80 1 -1 -1 -1
 11 -1 0 0 0 0 0 0 4.99823 4.99823 0 0. 9.
 -11 -1 0 0 0 0 0 0 -5 5 0 0. 9.
 15 1 1 2 0 0 0.152646 -0.468332 -4.64747 4.99994 1.7768 0. -1
 -15 1 1 2 0 0 -0.152646 0.468332 4.6457 4.99829 1.7768 0. 1
</event>
<event>
 4 80 1 -1 -1 -1
 11 -1 0 0 0 0 0 0 5 5 0 0. 9.
 -11 -1 0 0 0 0 0 0 -5 5 0 0. 9.
 15 1 1 2 0 0 -1.36912 -3.44093 -2.85093 5 1.7768 0. 1
 -15 1 1 2 0 0 1.36912 3.44093 2.85093 5 1.7768 0. -1
</event>
<event>
 4 80 1 -1 -1 -1
 11 -1 0 0 0 0 0 0 5 5 0 0. 9.
 -11 -1 0 0 0 0 0 0 -4.35051 4.35051 0 0. 9.
 15 1 1 2 0 0 0.0153899 -1.67473 4.30801 4.95193 1.7768 0. -1
 -15 1 1 2 0 0 -0.0153899 1.67473 -3.65853 4.39858 1.7768 0. 1
</event>
<event>
 4 80 1 -1 -1 -1
 11 -1 0 0 0 0 0 0 5 5 0 0. 9.
 -11 -1 0 0 0 0 0 0 -5 5 0 0. 9.
 15 1 1 2 0 0 -1.41234 -3.00162 3.29209 5 1.7768 0. -1
 -15 1 1 2 0 0 1.41234 3.00162 -3.29209 5 1.7768 0. 1
</event>
<event>
 4 80 1 -1 -1 -1
 11 -1 0 0 0 0 0 0 4.92666 4.92666 0 0. 9.
 -11 -1 0 0 0 0 0 0 -5 5 0 0. 9.
 15 1 1 2 0 0 0.718879 -1.9812 4.09063 4.93284 1.7768 0. 1
 -15 1 1 2 0 0 -0.718879 1.9812 -4.16396 4.99382 1.7768 0. -1
</event>
<event>
 4 80 1 -1 -1 -1
 11 -1 0 0 0 0 0 0 5 5 0 0. 9.
 -11 -1 0 0 0 0 0 0 -4.95227 4.95227 0 0. 9.
 15 1 1 2 0 0 -0.72521 -3.47058 3.02935 4.99055 1.7768 0. 1
 -15 1 1 2 0 0 0.72521 3.47058 -2.98163 4.96172 1.7768 0. -1
</event>
<event>
 4 80 1 -1 -1 -1
 11 -1 0 0 0 0 0 0 5 5 0 0. 9.
 -11 -1 0 0 0 0 0 0 -5 5 0 0. 9.
 15 1 1 2 0 0 0.326502 -1.98242 -4.21968 5 1.7768 0. 1
 -15 1 1 2 0 0 -0.326502 1.98242 4.21968 5 1.7768 0. -1
</event>
<event>
 4 80 1 -1 -1 -1
 11 -1 0 0 0 0 0 0 5 5 0 0. 9.
 -11 -1 0 0 0 0 0 0 -4.99048 4.99048 0 0. 9.
 15 1 1 2 0 0 0.763656 -2.7796 3.677 4.99874 1.7768 0. 1
 -15 1 1 2 0 0 -0.763656 2.7796 -3.66747 4.99174 1.7768 0. -1
</event>
<event>
 4 80 1 -1 -1 -1
 11 -1 0 0 0 0 0 0 3.48965 3.48965 0 0. 9.
 -11 -1 0 0 0 0 0 0 -5 5 0 0. 9.
 15 1 1 2 0 0 -0.259531 0.307253 -4.57493 4.92438 1.7768 0. 1
 -15 1 1 2 0 0 0.259531 -0.307253 3.06458 3.56527 1.7768 0. -1
</event>
<event>
 4 80 1 -1 -1 -1
 11 -1 0 0 0 0 0 0 3.90204 3.90204 0 0. 9.
 -11 -1 0 0 0 0 0 0 -4.93055 4.93055 0 0. 9.
 15 1 1 2 0 0 -0.433181 -3.03966 2.08301 4.11386 1.7768 0. 1
 -15 1 1 2 0 0 0.433181 3.03966 -3.11152 4.71873 1.7768 0. -1
</event>
<event>
 4 80 1 -1 -1 -1
 11 -1 0 0 0 0 0 0 4.40838 4.40838 0 0. 9.
 -11 -1 0 0 0 0 0 0 -4.99993 4.99993 0 0. 9.
 15 1 1 2 0 0 -3.50346 -2.23864 -1.56243 4.78379 1.7768 0. 1
 -15 1 1 2 0 0 3.50346 2.23864 0.970877 4.62451 1.7768 0. -1
</event>
<event>
 4 80 1 -1 -1 -1
 11 -1 0 0 0 0 0 0 4.69054 4.69054 0 0. 9.
 -11 -1 0 0 0 0 0 0 -5 5 0 0. 9.
 15 1 1 2 0 0 -0.790355 1.02617 -4.47171 4.98313 1.7768 0. 1
 -15 1 1 2 0 0 0.790355 -1.02617 4.16225 4.70741 1.7768 0. -1
</event>
<event>
 4 80 1 -1 -1 -1
 11 -1 0 0 0 0 0 0 5 5 0 0. 9.
 -11 -1 0 0 0 0 0 0 -4.99996 4.99996 0 0. 9.
 15 1 1 2 0 0 -3.58284 2.13254 -2.11127 4.99997 1.7768 0. -1
 -15 1 1 2 0 0 3.58284 -2.13254 2.11131 4.99999 1.7768 0. 1
</event>
<event>
 4 80 1 -1 -1 -1
 11 -1 0 0 0 0 0 0 5 5 0 0. 9.
 -11 -1 0 0 0 0 0 0 -4.99995 4.99995 0 0. 9.
 15 1 1 2 0 0 -0.00783018 -4.6017 0.816302 4.99998 1.7768 0. -1
 -15 1 1 2 0 0 0.00783018 4.6017 -0.816248 4.99997 1.7768 0. 1
</event>
<event>
 4 80 1 -1 -1 -1
 11 -1 0 0 0 0 0 0 5 5 0 0. 9.
 -11 -1 0 0 0 0 0 0 -0.701892 0.701892 0 0. 9.
 15 1 1 2 0 0 -0.406299 0.234326 2.70143 3.26733 1.7768 0. -1
 -15 1 1 2 0 0 0.406299 -0.234326 1.59668 2.43456 1.7768 0. 1
</event>
<event>
 4 80 1 -1 -1 -1
 11 -1 0 0 0 0 0 0 5 5 0 0. 9.
 -11 -1 0 0 0 0 0 0 -5 5 0 0. 9.
 15 1 1 2 0 0 0.327148 -4.65625 -0.233538 5 1.7768 0. 1
 -15 1 1 2 0 0 -0.327148 4.65625 0.233538 5 1.7768 0. -1
</event>
<event>
 4 80 1 -1 -1 -1
 11 -1 0 0 0 0 0 0 0.681198 0.681198 0 0. 9.
 -11 -1 0 0 0 0 0 0 -4.99996 4.99996 0 0. 9.
 15 1 1 2 0 0 -0.458565 -0.130994 -2.38132 3.0093 1.7768 0. 1
 -15 1 1 2 0 0 0.458565 0.130994 -1.93744 2.67186 1.7768 0. -1
</event>
<event>
 4 80 1 -1 -1 -1
 11 -1 0 0 0 0 0 0 3.08683 3.08683 0 0. 9.
 -11 -1 0 0 0 0 0 0 -5 5 0 0. 9.
 15 1 1 2 0 0 0.655314 -1.93809 1.97095 3.35082 1.7768 0. 1
 -15 1 1 2 0 0 -0.655314 1.93809 -3.88412 4.73601 1.7768 0. -1
</event>
<event>
 4 80 1 -1 -1 -1
 11 -1 0 0 0 0 0 0 4.45568 4.45568 0 0. 9.
 -11 -1 0 0 0 0 0 0 -4.18555 4.18555 0 0. 9.
 15 1 1 2 0 0 -0.0806874 3.09707 2.56389 4.39655 1.7768 0. 1
 -15 1 1 2 0 0 0.0806874 -3.09707 -2.29376 4.24469 1.7768 0. -1
</event>
<event>
 4 80 1 -1 -1 -1
 11 -1 0 0 0 0 0 0 5 5 0 0. 9.
 -11 -1 0 0 0 0 0 0 -4.99883 4.99883 0 0. 9.
 15 1 1 2 0 0 -3.36654 -3.08905 0.980663 4.99953 1.7768 0. 1
 -15 1 1 2 0 0 3.36654 3.08905 -0.97949 4.9993 1.7768 0. -1
</event>
<event>
 4 80 1 -1 -1 -1
 11 -1 0 0 0 0 0 0 5 5 0 0. 9.
 -11 -1 0 0 0 0 0 0 -4.99995 4.99995 0 0. 9.
 15 1 1 2 0 0 -3.72907 2.50167 -1.29526 4.99997 1.7768 0. -1
 -15 1 1 2 0 0 3.72907 -2.50167 1.29531 4.99998 1.7768 0. 1
</event>
<event>
 4 80 1 -1 -1 -1
 11 -1 0 0 0 0 0 0 4.56802 4.56802 0 0. 9.
 -11 -1 0 0 0 0 0 0 -5 5 0 0. 9.
 15 1 1 2 0 0 1.8646 0.613537 3.76667 4.6042 1.7768 0. 1
 -15 1 1 2 0 0 -1.8646 -0.613537 -4.19864 4.96382 1.7768 0. -1
</event>
<event>
 4 80 1 -1 -1 -1
 11 -1 0 0 0 0 0 0 5 5 0 0. 9.
 -11 -1 0 0 0 0 0 0 -4.9997 4.9997 0 0. 9.
 15 1 1 2 0 0 0.0556447 3.67689 2.88427 4.99994 1.7768 0. 1
 -15 1 1 2 0 0 -0.0556447 -3.67689 -2.88396 4.99976 1.7768 0. -1
</event>
<event>
 4 80 1 -1 -1 -1
 11 -1 0 0 0 0 0 0 4.91044 4.91044 0 0. 9.
 -11 -1 0 0 0 0 0 0 -5 5 0 0. 9.
 15 1 1 2 0 0 0.978822 -3.26406 3.08301 4.92695 1.7768 0. 1
 -15 1 1 2 0 0 -0.978822 3.26406 -3.17258 4.98348 1.7768 0. -1
</event>
<event>
 4 80 1 -1 -1 -1
 11 -1 0 0 0 0 0 0 5 5 0 0. 9.
 -11 -1 0 0 0 0 0 0 -1.10986 1.10986 0 0. 9.
 15 1 1 2 0 0 1.24443 0.814726 1.39615 2.70543 1.7768 0. 1
 -15 1 1 2 0 0 -1.24443 -0.814726 2.49399 3.40443 1.7768 0. -1
</event>
<event>
 4 80 1 -1 -1 -1
 11 -1 0 0 0 0 0 0 4.99999 4.99999 0 0. 9.
 -11 -1 0 0 0 0 0 0 -5 5 0 0. 9.
 15 1 1 2 0 0 0.726685 4.61635 0.0584537 4.99999 1.7768 0. -1
 -15 1 1 2 0 0 -0.726685 -4.61635 -0.0584637 5 1.7768 0. 1
</event>
<event>
 4 80 1 -1 -1 -1
 11 -1 0 0 0 0 0 0 1.22287 1.22287 0 0. 9.
 -11 -1 0 0 0 0 0 0 -5 5 0 0. 9.
 15 1 1 2 0 0 -1.20501 0.159254 -0.358187 2.18253 1.7768 0. 1
 -15 1 1 2 0 0 1.20501 -0.159254 -3.41894 4.04034 1.7768 0. -1
</event>
<event>
 4 80 1 -1 -1 -1
 11 -1 0 0 0 0 0 0 5 5 0 0. 9.
 -11 -1 0 0 0 0 0 0 -4.99998 4.99998 0 0. 9.
 15 1 1 2 0 0 -1.0023 1.1675 4.413 5 1.7768 0. -1
 -15 1 1 2 0 0 1.0023 -1.1675 -4.41298 4.99998 1.7768 0. 1
</event>
<event>
 4 80 1 -1 -1 -1
 11 -1 0 0 0 0 0 0 4.95353 4.95353 0 0. 9.
 -11 -1 0 0 0 0 0 0 -5 5 0 0. 9.
 15 1 1 2 0 0 -0.56247 -3.06765 3.42399 4.96067 1.7768 0. 1
 -15 1 1 2 0 0 0.56247 3.06765 -3.47046 4.99286 1.7768 0. -1
</event>
<event>
 4 80 1 -1 -1 -1
 11 -1 0 0 0 0 0 0 5 5 0 0. 9.
 -11 -1 0 0 0 0 0 0 -5 5 0 0. 9.
 15 1 1 2 0 0 2.4039 3.13568 2.4962 5 1.7768 0. -1
 -15 1 1 2 0 0 -2.4039 -3.13568 -2.4962 5 1.7768 0. 1
</event>
<event>
 4 80 1 -1 -1 -1
 11 -1 0 0 0 0 0 0 5 5 0 0. 9.
 -11 -1 0 0 0 0 0 0 -4.99924 4.99924 0 0. 9.
 15 1 1 2 0 0 -0.135986 -1.33144 4.47779 4.99996 1.7768 0. -1
 -15 1 1 2 0 0 0.135986 1.33144 -4.47704 4.99928 1.7768 0. 1
</event>
<event>
 4 80 1 -1 -1 -1
 11 -1 0 0 0 0 0 0 0.66724 0.66724 0 0. 9.
 -11 -1 0 0 0 0 0 0 -4.99119 4.99119 0 0. 9.
 15 1 1 2 0 0 -0.0501573 0.166997 -1.57738 2.38249 1.7768 0. 1
 -15 1 1 2 0 0 0.0501573 -0.166997 -2.74658 3.27595 1.7768 0. -1
</event>
<event>
 4 80 1 -1 -1 -1
 11 -1 0 0 0 0 0 0 4.99994 4.99994 0 0. 9.
 -11 -1 0 0 0 0 0 0 -5 5 0 0. 9.
 15 1 1 2 0 0 -2.4666 -3.57813 -1.71901 4.99998 1.7768 0. -1
 -15 1 1 2 0 0 2.4666 3.57813 1.71894 4.99996 1.7768 0. 1
</event>
<event>
 4 80 1 -1 -1 -1
 11 -1 0 0 0 0 0 0 4.99963 4.99963 0 0. 9.
 -11 -1 0 0 0 0 0 0 -5 5 0 0. 9.
 15 1 1 2 0 0 -0.217578 -3.02027 3.55946 4.99968 1.7768 0. 1
 -15 1 1 2 0 0 0.217578 3.02027 -3.55983 4.99995 1.7768 0. -1
</event>
<event>
 4 80 1 -1 -1 -1
 11 -1 0 0 0 0 0 0 5 5 0 0. 9.
 -11 -1 0 0 0 0 0 0 -4.98853 4.98853 0 0. 9.
 15 1 1 2 0 0 -0.600246 -4.61866 -0.298626 4.99392 1.7768 0. -1
 -15 1 1 2 0 0 0.600246 4.61866 0.310095 4.99462 1.7768 0. 1
</event>
<event>
 4 80 1 -1 -1 -1
 11 -1 0 0 0 0 0 0 5 5 0 0. 9.
 -11 -1 0 0 0 0 0 0 -3.99653 3.99653 0 0. 9.
 15 1 1 2 0 0 -0.889279 -3.58435 -1.29457 4.29791 1.7768 0. 1
 -15 1 1 2 0 0 0.889279 3.58435 2.29804 4.69862 1.7768 0. -1
</event>
<event>
 4 80 1 -1 -1 -1
 11 -1 0 0 0 0 0 0 4.99971 4.99971 0 0. 9.
 -11 -1 0 0 0 0 0 0 -4.97542 4.97542 0 0. 9.
 15 1 1 2 0 0 0.148026 -2.75747 3.76614 4.99671 1.7768 0. -1
 -15 1 1 2 0 0 -0.148026 2.75747 -3.74185 4.97843 1.7768 0. 1
</event>
<event>
 4 80 1 -1 -1 -1
 11 -1 0 0 0 0 0 0 4.9999 4.9999 0 0. 9.
 -11 -1 0 0 0 0 0 0 -5 5 0 0. 9.
 15 1 1 2 0 0 1.76771 3.47587 -2.57596 4.99998 1.7768 0. 1
 -15 1 1 2 0 0 -1.76771 -3.47587 2.57586 4.99992 1.7768 0. -1
</event>
<event>
 4 80 1 -1 -1 -1
 11 -1 0 0 0 0 0 0 5 5 0 0. 9.
 -11 -1 0 0 0 0 0 0 -5 5 0 0. 9.
 15 1 1 2 0 0 -0.576535 -4.06658 2.22998 5 1.7768 0. -1
 -15 1 1 2 0 0 0.576535 4.06658 -2.22997 5 1.7768 0. 1
</event>
<event>
 4 80 1 -1 -1 -1
 11 -1 0 0 0 0 0 0 5 5 0 0. 9.
 -11 -1 0 0 0 0 0 0 -4.99407 4.99407 0 0. 9.
 15 1 1 2 0 0 0.222212 0.142032 4.66591 4.9998 1.7768 0. 1
 -15 1 1 2 0 0 -0.222212 -0.142032 -4.65998 4.99427 1.7768 0. -1
</event>
<event>
 4 80 1 -1 -1 -1
 11 -1 0 0 0 0 0 0 5 5 0 0. 9.
 -11 -1 0 0 0 0 0 0 -5 5 0 0. 9.
 15 1 1 2 0 0 -4.2621 -1.69171 -0.902724 5 1.7768 0. 1
 -15 1 1 2 0 0 4.2621 1.69171 0.902724 5 1.7768 0. -1
</event>
<event>
 4 80 1 -1 -1 -1
 11 -1 0 0 0 0 0 0 4.99993 4.99993 0 0. 9.
 -11 -1 0 0 0 0 0 0 -5 5 0 0. 9.
 15 1 1 2 0 0 -4.35761 0.901707 -1.42834 4.99997 1.7768 0. 1
 -15 1 1 2 0 0 4.35761 -0.901707 1.42827 4.99995 1.7768 0. -1
</event>
<event>
 4 80 1 -1 -1 -1
 11 -1 0 0 0 0 0 0 4.74445 4.74445 0 0. 9.
 -11 -1 0 0 0 0 0 0 -5 5 0 0. 9.
 15 1 1 2 0 0 -2.45801 -1.74018 3.26374 4.78328 1.7768 0. -1
 -15 1 1 2 0 0 2.45801 1.74018 -3.51929 4.96117 1.7768 0. 1
</event>
<event>
 4 80 1 -1 -1 -1
 11 -1 0 0 0 0 0 0 5 5 0 0. 9.
 -11 -1 0 0 0 0 0 0 -5 5 0 0. 9.
 15 1 1 2 0 0 -2.82285 -0.138587 -3.72217 5 1.7768 0. -1
 -15 1 1 2 0 0 2.82285 0.138587 3.72217 5 1.7768 0. 1
</event>
<event>
 4 80 1 -1 -1 -1
 11 -1 0 0 0 0 0 0 5 5 0 0. 9.
 -11 -1 0 0 0 0 0 0 -4.98022 4.98022 0 0. 9.
 15 1 1 2 0 0 -1.79681 -4.18565 -0.987669 4.98813 1.7768 0. -1
 -15 1 1 2 0 0 1.79681 4.18565 1.00745 4.99208 1.7768 0. 1
</event>
<event>
 4 80 1 -1 -1 -1
 11 -1 0 0 0 0 0 0 5 5 0 0. 9.
 -11 -1 0 0 0 0 0 0 -4.93159 4.93159 0 0. 9.
 15 1 1 2 0 0 4.03773 1.78627 -1.38223 4.95604 1.7768 0. 1
 -15 1 1 2 0 0 -4.03773 -1.78627 1.45064 4.97555 1.7768 0. -1
</event>
<event>
 4 80 1 -1 -1 -1
 11 -1 0 0 0 0 0 0 5 5 0 0. 9.
 -11 -1 0 0 0 0 0 0 -5 5 0 0. 9.
 15 1 1 2 0 0 -4.64541 -0.495076 0.131504 5 1.7768 0. 1
 -15 1 1 2 0 0 4.64541 0.495076 -0.131501 5 1.7768 0. -1
</event>
<event>
 4 80 1 -1 -1 -1
 11 -1 0 0 0 0 0 0 4.99999 4.99999 0 0. 9.
 -11 -1 0 0 0 0 0 0 -5 5 0 0. 9.
 15 1 1 2 0 0 1.24627 -3.08592 3.28117 4.99999 1.7768 0. 1
 -15 1 1 2 0 0 -1.24627 3.08592 -3.28118 5 1.7768 0. -1
</event>
<event>
 4 80 1 -1 -1 -1
 11 -1 0 0 0 0 0 0 4.20949 4.20949 0 0. 9.
 -11 -1 0 0 0 0 0 0 -5 5 0 0. 9.
 15 1 1 2 0 0 -3.95717 -0.688611 -1.72543 4.71892 1.7768 0. 1
 -15 1 1 2 0 0 3.95717 0.688611 0.93492 4.49057 1.7768 0. -1
</event>
<event>
 4 80 1 -1 -1 -1
 11 -1 0 0 0 0 0 0 5 5 0 0. 9.
 -11 -1 0 0 0 0 0 0 -5 5 0 0. 9.
 15 1 1 2 0 0 4.00132 -1.68807 1.72688 5 1.7768 0. -1
 -15 1 1 2 0 0 -4.00132 1.68807 -1.72688 5 1.7768 0. 1
</event>
<event>
 4 80 1 -1 -1 -1
 11 -1 0 0 0 0 0 0 5 5 0 0. 9.
 -11 -1 0 0 0 0 0 0 -5 5 0 0. 9.
 15 1 1 2 0 0 3.09921 -0.214394 3.49159 5 1.7768 0. 1
 -15 1 1 2 0 0 -3.09921 0.214394 -3.49159 5 1.7768 0. -1
</event>
<event>
 4 80 1 -1 -1 -1
 11 -1 0 0 0 0 0 0 4.995 4.995 0 0. 9.
 -11 -1 0 0 0 0 0 0 -3.89966 3.89966 0 0. 9.
 15 1 1 2 0 0 -2.48339 -2.2095 2.86135 4.73225 1.7768 0. 1
 -15 1 1 2 0 0 2.48339 2.2095 -1.76601 4.16241 1.7768 0. -1
</event>
<event>
 4 80 1 -1 -1 -1
 11 -1 0 0 0 0 0 0 5 5 0 0. 9.
 -11 -1 0 0 0 0 0 0 -4.99118 4.99118 0 0. 9.
 15 1 1 2 0 0 -0.710288 2.90364 -3.58203 4.99242 1.7768 0. 1
 -15 1 1 2 0 0 0.710288 -2.90364 3.59085 4.99876 1.7768 0. -1
</event>
<event>
 4 80 1 -1 -1 -1
 11 -1 0 0 0 0 0 0 5 5 0 0. 9.
 -11 -1 0 0 0 0 0 0 -4.99996 4.99996 0 0. 9.
 15 1 1 2 0 0 1.27778 0.938689 -4.39637 4.99996 1.7768 0. 1
 -15 1 1 2 0 0 -1.27778 -0.938689 4.39641 5 1.7768 0. -1
</event>
<event>
 4 80 1 -1 -1 -1
 11 -1 0 0 0 0 0 0 5 5 0 0. 9.
 -11 -1 0 0 0 0 0 0 -4.99998 4.99998 0 0. 9.
 15 1 1 2 0 0 3.45323 -1.04098 2.97217 5 1.7768 0. 1
 -15 1 1 2 0 0 -3.45323 1.04098 -2.97215 4.99998 1.7768 0. -1
</event>
<event>
 4 80 1 -1 -1 -1
 11 -1 0 0 0 0 0 0 3.98562 3.98562 0 0. 9.
 -11 -1 0 0 0 0 0 0 -5 5 0 0. 9.
 15 1 1 2 0 0 0.271777 -3.20049 -3.06388 4.78143 1.7768 0. 1
 -15 1 1 2 0 0 -0.271777 3.20049 2.0495 4.20419 1.7768 0. -1
</event>
<event>
 4 80 1 -1 -1 -1
 11 -1 0 0 0 0 0 0 3.32158 3.32158 0 0. 9.
 -11 -1 0 0 0 0 0 0 -5 5 0 0. 9.
 15 1 1 2 0 0 3.60879 0.643321 -0.723089 4.13737 1.7768 0. 1
 -15 1 1 2 0 0 -3.60879 -0.643321 -0.955336 4.18421 1.7768 0. -1
</event>
<event>
 4 80 1 -1 -1 -1
 11 -1 0 0 0 0 0 0 4.44772 4.44772 0 0. 9.
 -11 -1 0 0 0 0 0 0 -5 5 0 0. 9.
 15 1 1 2 0 0 -4.18506 0.650991 -1.34676 4.78644 1.7768 0. 1
 -15 1 1 2 0 0 4.18506 -0.650991 0.794474 4.66127 1.7768 0. -1
</event>
<event>
 4 80 1 -1 -1 -1
 11 -1 0 0 0 0 0 0 5 5 0 0. 9.
 -11 -1 0 0 0 0 0 0 -3.81718 3.81718 0 0. 9.
 15 1 1 2 0 0 -1.58621 0.963277 4.15694 4.8869 1.7768 0. -1
 -15 1 1 2 0 0 1.58621 -0.963277 -2.97411 3.93027 1.7768 0. 1
</event>
<event>
 4 80 1 -1 -1 -1
 11 -1 0 0 0 0 0 0 4.79519 4.79519 0 0. 9.
 -11 -1 0 0 0 0 0 0 -1.43786 1.43786 0 0. 9.
 15 1 1 2 0 0 -0.68072 -0.810864 3.59842 4.15057 1.7768 0. 1
 -15 1 1 2 0 0 0.68072 0.810864 -0.241086 2.08248 1.7768 0. -1
</event>
<event>
 4 80 1 -1 -1 -1
 11 -1 0 0 0 0 0 0 4.99997 4.99997 0 0. 9.
 -11 -1 0 0 0 0 0 0 -5 5 0 0. 9.
 15 1 1 2 0 0 0.459273 -0.969731 4.5487 4.99997 1.7768 0. -1
 -15 1 1 2 0 0 -0.459273 0.969731 -4.54873 5 1.7768 0. 1
</event>
<event>
 4 80 1 -1 -1 -1
 11 -1 0 0 0 0 0 0 4.9999 4.9999 0 0. 9.
 -11 -1 0 0 0 0 0 0 -2.26581 2.26581 0 0. 9.
 15 1 1 2 0 0 0.410102 0.808101 4.29319 4.73396 1.7768 0. 1
 -15 1 1 2 0 0 -0.410102 -0.808101 -1.5591 2.53175 1.7768 0. -1
</event>
<event>
 4 80 1 -1 -1 -1
 11 -1 0 0 0 0 0 0 5 5 0 0. 9.
 -11 -1 0 0 0 0 0 0 -4.98629 4.98629 0 0. 9.
 15 1 1 2 0 0 -4.28728 0.298953 -1.81072 4.99065 1.7768 0. 1
 -15 1 1 2 0 0 4.28728 -0.298953 1.82443 4.99564 1.7768 0. -1
</event>
<event>
 4 80 1 -1 -1 -1
 11 -1 0 0 0 0 0 0 5 5 0 0. 9.
 -11 -1 0 0 0 0 0 0 -5 5 0 0. 9.
 15 1 1 2 0 0 -3.70167 0.765938 -2.74831 5 1.7768 0. 1
 -15 1 1 2 0 0 3.70167 -0.765938 2.74831 5 1.7768 0. -1
</event>
<event>
 4 80 1 -1 -1 -1
 11 -1 0 0 0 0 0 0 5 5 0 0. 9.
 -11 -1 0 0 0 0 0 0 -4.99928 4.99928 0 0. 9.
 15 1 1 2 0 0 -2.44779 1.26186 3.7759 4.99991 1.7768 0. -1
 -15 1 1 2 0 0 2.44779 -1.26186 -3.77518 4.99936 1.7768 0. 1
</event>
<event>
 4 80 1 -1 -1 -1
 11 -1 0 0 0 0 0 0 5 5 0 0. 9.
 -11 -1 0 0 0 0 0 0 -0.711295 0.711295 0 0. 9.
 15 1 1 2 0 0 -0.112272 0.144751 1.22928 2.16851 1.7768 0. -1
 -15 1 1 2 0 0 0.112272 -0.144751 3.05942 3.54279 1.7768 0. 1
</event>
<event>
 4 80 1 -1 -1 -1
 11 -1 0 0 0 0 0 0 5 5 0 0. 9.
 -11 -1 0 0 0 0 0 0 -4.99936 4.99936 0 0. 9.
 15 1 1 2 0 0 -0.751885 2.48278 3.88742 4.99993 1.7768 0. 1
 -15 1 1 2 0 0 0.751885 -2.48278 -3.88678 4.99944 1.7768 0. -1
</event>
<event>
 4 80 1 -1 -1 -1
 11 -1 0 0 0 0 0 0 5 5 0 0. 9.
 -11 -1 0 0 0 0 0 0 -4.81928 4.81928 0 0. 9.
 15 1 1 2 0 0 3.55242 -2.50482 -1.33987 4.88332 1.7768 0. 1
 -15 1 1 2 0 0 -3.55242 2.50482 1.52059 4.93596 1.7768 0. -1
</event>
<event>
 4 80 1 -1 -1 -1
 11 -1 0 0 0 0 0 0 4.99965 4.99965 0 0. 9.
 -11 -1 0 0 0 0 0 0 -4.93978 4.93978 0 0. 9.
 15 1 1 2 0 0 1.84056 -1.93474 3.82587 4.99258 1.7768 0. 1
 -15 1 1 2 0 0 -1.84056 1.93474 -3.766 4.94685 1.7768 0. -1
</event>
<event>
 4 80 1 -1 -1 -1
 11 -1 0 0 0 0 0 0 5 5 0 0. 9.
 -11 -1 0 0 0 0 0 0 -5 5 0 0. 9.
 15 1 1 2 0 0 -1.39667 -2.31225 3.8138 5 1.7768 0. 1
 -15 1 1 2 0 0 1.39667 2.31225 -3.8138 5 1.7768 0. -1
</event>
<event>
 4 80 1 -1 -1 -1
 11 -1 0 0 0 0 0 0 4.99973 4.99973 0 0. 9.
 -11 -1 0 0 0 0 0 0 -5 5 0 0. 9.
 15 1 1 2 0 0 -0.232763 -4.02924 2.35612 4.9998 1.7768 0. 1
 -15 1 1 2 0 0 0.232763 4.02924 -2.3564 4.99993 1.7768 0. -1
</event>
<event>
 4 80 1 -1 -1 -1
 11 -1 0 0 0 0 0 0 0.668423 0.668423 0 0. 9.
 -11 -1 0 0 0 0 0 0 -5 5 0 0. 9.
 15 1 1 2 0 0 0.0801515 0.27273 -2.66474 3.21549 1.7768 0. -1
 -15 1 1 2 0 0 -0.0801515 -0.27273 -1.66683 2.45293 1.7768 0. 1
</event>
<event>
 4 80 1 -1 -1 -1
 11 -1 0 0 0 0 0 0 5 5 0 0. 9.
 -11 -1 0 0 0 0 0 0 -4.99915 4.99915 0 0. 9.
 15 1 1 2 0 0 0.144837 -4.08944 2.2573 4.99977 1.7768 0. 1
 -15 1 1 2 0 0 -0.144837 4.08944 -2.25646 4.99939 1.7768 0. -1
</event>
<event>
 4 80 1 -1 -1 -1
 11 -1 0 0 0 0 0 0 4.9933 4.9933 0 0. 9.
 -11 -1 0 0 0 0 0 0 -4.99999 4.99999 0 0. 9.
 15 1 1 2 0 0 -0.929002 1.38584 4.35843 4.99372 1.7768 0. 1
 -15 1 1 2 0 0 0.929002 -1.38584 -4.36513 4.99957 1.7768 0. -1
</event>
<event>
 4 80 1 -1 -1 -1
 11 -1 0 0 0 0 0 0 4.99885 4.99885 0 0. 9.
 -11 -1 0 0 0 0 0 0 -4.99963 4.99963 0 0. 9.
 15 1 1 2 0 0 -0.96517 -4.48913 0.866112 4.99917 1.7768 0. -1
 -15 1 1 2 0 0 0.96517 4.48913 -0.866897 4.99931 1.7768 0. 1
</event>
<event>
 4 80 1 -1 -1 -1
 11 -1 0 0 0 0 0 0 4.99996 4.99996 0 0. 9.
 -11 -1 0 0 0 0 0 0 -4.99995 4.99995 0 0. 9.
 15 1 1 2 0 0 -2.99947 -1.32391 3.33052 4.99996 1.7768 0. 1
 -15 1 1 2 0 0 2.99947 1.32391 -3.3305 4.99995 1.7768 0. -1
</event>
<event>
 4 80 1 -1 -1 -1
 11 -1 0 0 0 0 0 0 5 5 0 0. 9.
 -11 -1 0 0 0 0 0 0 -4.99999 4.99999 0 0. 9.
 15 1 1 2 0 0 -4.02248 2.13969 1.04097 4.99999 1.7768 0. 1
 -15 1 1 2 0 0 4.02248 -2.13969 -1.04095 4.99999 1.7768 0. -1
</event>
<event>
 4 80 1 -1 -1 -1
 11 -1 0 0 0 0 0 0 5 5 0 0. 9.
 -11 -1 0 0 0 0 0 0 -4.87121 4.87121 0 0. 9.
 15 1 1 2 0 0 1.44369 2.84838 -3.25264 4.89233 1.7768 0. -1
 -15 1 1 2 0 0 -1.44369 -2.84838 3.38143 4.97888 1.7768 0. 1
</event>
<event>
 4 80 1 -1 -1 -1
 11 -1 0 0 0 0 0 0 4.61593 4.61593 0 0. 9.
 -11 -1 0 0 0 0 0 0 -5 5 0 0. 9.
 15 1 1 2 0 0 1.05506 -0.423075 -4.5117 4.9805 1.7768 0. -1
 -15 1 1 2 0 0 -1.05506 0.423075 4.12763 4.63543 1.7768 0. 1
</event>
<event>
 4 80 1 -1 -1 -1
 11 -1 0 0 0 0 0 0 1.46855 1.46855 0 0. 9.
 -11 -1 0 0 0 0 0 0 -3.74818 3.74818 0 0. 9.
 15 1 1 2 0 0 -1.04893 1.0698 -1.49477 2.76347 1.7768 0. -1
 -15 1 1 2 0 0 1.04893 -1.0698 -0.784861 2.45326 1.7768 0. 1
</event>
<event>
 4 80 1 -1 -1 -1
 11 -1 0 0 0 0 0 0 0.917706 0.917706 0 0. 9.
 -11 -1 0 0 0 0 0 0 -5 5 0 0. 9.
 15 1 1 2 0 0 0.813581 0.287588 -0.896936 2.16953 1.7768 0. 1
 -15 1 1 2 0 0 -0.813581 -0.287588 -3.18536 3.74818 1.7768 0. -1
</event>
<event>
 4 80 1 -1 -1 -1
 11 -1 0 0 0 0 0 0 5 5 0 0. 9.
 -11 -1 0 0 0 0 0 0 -5 5 0 0. 9.
 15 1 1 2 0 0 1.75363 2.76105 -3.33821 5 1.7768 0. -1
 -15 1 1 2 0 0 -1.75363 -2.76105 3.33821 5 1.7768 0. 1
</event>
<event>
 4 80 1 -1 -1 -1
 11 -1 0 0 0 0 0 0 5 5 0 0. 9.
 -11 -1 0 0 0 0 0 0 -4.99379 4.99379 0 0. 9.
 15 1 1 2 0 0 3.78493 -0.397093 2.7101 4.99858 1.7768 0. 1
 -15 1 1 2 0 0 -3.78493 0.397093 -2.7039 4.99522 1.7768 0. -1
</event>
<event>
 4 80 1 -1 -1 -1
 11 -1 0 0 0 0 0 0 4.68962 4.68962 0 0. 9.
 -11 -1 0 0 0 0 0 0 -2.44242 2.44242 0 0. 9.
 15 1 1 2 0 0 -1.38604 0.53709 3.72315 4.3851 1.7768 0. -1
 -15 1 1 2 0 0 1.38604 -0.53709 -1.47595 2.74694 1.7768 0. 1
</event>
<event>
 4 80 1 -1 -1 -1
 11 -1 0 0 0 0 0 0 5 5 0 0. 9.
 -11 -1 0 0 0 0 0 0 -4.98174 4.98174 0 0. 9.
 15 1 1 2 0 0 0.370196 0.812899 4.58659 4.99924 1.7768 0. -1
 -15 1 1 2 0 0 -0.370196 -0.812899 -4.56833 4.98249 1.7768 0. 1
</event>
<event>
 4 80 1 -1 -1 -1
 11 -1 0 0 0 0 0 0 5 5 0 0. 9.
 -11 -1 0 0 0 0 0 0 -5 5 0 0. 9.
 15 1 1 2 0 0 -1.16806 2.55728 -3.73339 5 1.7768 0. -1
 -15 1 1 2 0 0 1.16806 -2.55728 3.73339 5 1.7768 0. 1
</event>
<event>
 4 80 1 -1 -1 -1
 11 -1 0 0 0 0 0 0 4.99998 4.99998 0 0. 9.
 -11 -1 0 0 0 0 0 0 -5 5 0 0. 9.
 15 1 1 2 0 0 0.408037 1.82459 -4.2833 5 1.7768 0. 1
 -15 1 1 2 0 0 -0.408037 -1.82459 4.28328 4.99998 1.7768 0. -1
</event>
<event>
 4 80 1 -1 -1 -1
 11 -1 0 0 0 0 0 0 5 5 0 0. 9.
 -11 -1 0 0 0 0 0 0 -5 5 0 0. 9.
 15 1 1 2 0 0 2.35596 -3.04213 2.65277 5 1.7768 0. -1
 -15 1 1 2 0 0 -2.35596 3.04213 -2.65277 5 1.7768 0. 1
</event>
<event>
 4 80 1 -1 -1 -1
 11 -1 0 0 0 0 0 0 5 5 0 0. 9.
 -11 -1 0 0 0 0 0 0 -4.99079 4.99079 0 0. 9.
 15 1 1 2 0 0 -1.28923 2.43341 3.77457 4.99887 1.7768 0. 1
 -15 1 1 2 0 0 1.28923 -2.43341 -3.76536 4.99192 1.7768 0. -1
</event>
<event>
 4 80 1 -1 -1 -1
 11 -1 0 0 0 0 0 0 5 5 0 0. 9.
 -11 -1 0 0 0 0 0 0 -4.04971 4.04971 0 0. 9.
 15 1 1 2 0 0 2.32774 -1.48456 3.56935 4.84977 1.7768 0. 1
 -15 1 1 2 0 0 -2.32774 1.48456 -2.61907 4.19994 1.7768 0. -1
</event>
<event>
 4 80 1 -1 -1 -1
 11 -1 0 0 0 0 0 0 1.47832 1.47832 0 0. 9.
 -11 -1 0 0 0 0 0 0 -4.99405 4.99405 0 0. 9.
 15 1 1 2 0 0 1.12959 -0.699912 0.109901 2.22163 1.7768 0. -1
 -15 1 1 2 0 0 -1.12959 0.699912 -3.62563 4.25074 1.7768 0. 1
</event>
<event>
 4 80 1 -1 -1 -1
 11 -1 0 0 0 0 0 0 4.99844 4.99844 0 0. 9.
 -11 -1 0 0 0 0 0 0 -5 5 0 0. 9.
 15 1 1 2 0 0 1.76355 2.83299 -3.27164 4.99973 1.7768 0. 1
 -15 1 1 2 0 0 -1.76355 -2.83299 3.27008 4.99871 1.7768 0. -1
</event>
<event>
 4 80 1 -1 -1 -1
 11 -1 0 0 0 0 0 0 4.20059 4.20059 0 0. 9.
 -11 -1 0 0 0 0 0 0 -4.92762 4.92762 0 0. 9.
 15 1 1 2 0 0 1.7123 3.41487 -2.08592 4.70129 1.7768 0. 1
 -15 1 1 2 0 0 -1.7123 -3.41487 1.35889 4.42692 1.7768 0. -1
</event>
<event>
 4 80 1 -1 -1 -1
 11 -1 0 0 0 0 0 0 5 5 0 0. 9.
 -11 -1 0 0 0 0 0 0 -4.99999 4.99999 0 0. 9.
 15 1 1 2 0 0 1.3674 -0.498591 -4.44115 4.99999 1.7768 0. -1
 -15 1 1 2 0 0 -1.3674 0.498591 4.44116 5 1.7768 0. 1
</event>
<event>
 4 80 1 -1 -1 -1
 11 -1 0 0 0 0 0 0 4.96712 4.96712 0 0. 9.
 -11 -1 0 0 0 0 0 0 -4.99989 4.99989 0 0. 9.
 15 1 1 2 0 0 1.44589 4.36967 0.685573 4.9812 1.7768 0. -1
 -15 1 1 2 0 0 -1.44589 -4.36967 -0.718334 4.98581 1.7768 0. 1
</event>
<event>
 4 80 1 -1 -1 -1
 11 -1 0 0 0 0 0 0 5 5 0 0. 9.
 -11 -1 0 0 0 0 0 0 -4.9969 4.9969 0 0. 9.
 15 1 1 2 0 0 -2.22525 -0.0516232 4.10915 4.99972 1.7768 0. -1
 -15 1 1 2 0 0 2.22525 0.0516232 -4.10605 4.99717 1.7768 0. 1
</event>
<event>
 4 80 1 -1 -1 -1
 11 -1 0 0 0 0 0 0 5 5 0 0. 9.
 -11 -1 0 0 0 0 0 0 -5 5 0 0. 9.
 15 1 1 2 0 0 2.73763 -2.0389 -3.19226 5 1.7768 0. 1
 -15 1 1 2 0 0 -2.73763 2.0389 3.19226 5 1.7768 0. -1
</event>
<event>
 4 80 1 -1 -1 -1
 11 -1 0 0 0 0 0 0 3.86888 3.86888 0 0. 9.
 -11 -1 0 0 0 0 0 0 -4.49769 4.49769 0 0. 9.
 15 1 1 2 0 0 2.68322 -2.0904 1.32542 4.06004 1.7768 0. -1
 -15 1 1 2 0 0 -2.68322 2.0904 -1.95423 4.30653 1.7768 0. 1
</event>
<event>
 4 80 1 -1 -1 -1
 11 -1 0 0 0 0 0 0 4.99999 4.99999 0 0. 9.
 -11 -1 0 0 0 0 0 0 -3.91196 3.91196 0 0. 9.
 15 1 1 2 0 0 2.62974 -3.05068 0.116729 4.40381 1.7768 0. 1
 -15 1 1 2 0 0 -2.62974 3.05068 0.971296 4.50814 1.7768 0. -1
</event>
<event>
 4 80 1 -1 -1 -1
 11 -1 0 0 0 0 0 0 5 5 0 0. 9.
 -11 -1 0 0 0 0 0 0 -5 5 0 0. 9.
 15 1 1 2 0 0 -1.20809 -2.16324 -3.96273 5 1.7768 0. 1
 -15 1 1 2 0 0 1.20809 2.16324 3.96273 5 1.7768 0. -1
</event>
<event>
 4 80 1 -1 -1 -1
 11 -1 0 0 0 0 0 0 5 5 0 0. 9.
 -11 -1 0 0 0 0 0 0 -5 5 0 0. 9.
 15 1 1 2 0 0 -0.263689 -1.90863 4.25792 5 1.7768 0. 1
 -15 1 1 2 0 0 0.263689 1.90863 -4.25792 5 1.7768 0. -1
</event>
<event>
 4 80 1 -1 -1 -1
 11 -1 0 0 0 0 0 0 5 5 0 0. 9.
 -11 -1 0 0 0 0 0 0 -5 5 0 0. 9.
 15 1 1 2 0 0 2.10897 1.14763 4.00967 5 1.7768 0. -1
 -15 1 1 2 0 0 -2.10897 -1.14763 -4.00967 5 1.7768 0. 1
</event>
<event>
 4 80 1 -1 -1 -1
 11 -1 0 0 0 0 0 0 4.93528 4.93528 0 0. 9.
 -11 -1 0 0 0 0 0 0 -4.99492 4.99492 0 0. 9.
 15 1 1 2 0 0 -0.0920256 3.71037 2.74842 4.94842 1.7768 0. -1
 -15 1 1 2 0 0 0.0920256 -3.71037 -2.80806 4.98179 1.7768 0. 1
</event>
<event>
 4 80 1 -1 -1 -1
 11 -1 0 0 0 0 0 0 4.88693 4.88693 0 0. 9.
 -11 -1 0 0 0 0 0 0 -5 5 0 0. 9.
 15 1 1 2 0 0 -2.29279 -1.31517 -3.83704 4.9867 1.7768 0. -1
 -15 1 1 2 0 0 2.29279 1.31517 3.72397 4.90023 1.7768 0. 1
</event>
<event>
 4 80 1 -1 -1 -1
 11 -1 0 0 0 0 0 0 5 5 0 0. 9.
 -11 -1 0 0 0 0 0 0 -4.45223 4.45223 0 0. 9.
 15 1 1 2 0 0 1.72804 4.01099 0.102415 4.71618 1.7768 0. -1
 -15 1 1 2 0 0 -1.72804 -4.01099 0.445354 4.73605 1.7768 0. 1
</event>
<event>
 4 80 1 -1 -1 -1
 11 -1 0 0 0 0 0 0 4.89414 4.89414 0 0. 9.
 -11 -1 0 0 0 0 0 0 -5 5 0 0. 9.
 15 1 1 2 0 0 -0.508527 0.202223 4.53138 4.89802 1.7768 0. -1
 -15 1 1 2 0 0 0.508527 -0.202223 -4.63723 4.99611 1.7768 0. 1
</event>
<event>
 4 80 1 -1 -1 -1
 11 -1 0 0 0 0 0 0 4.98219 4.98219 0 0. 9.
 -11 -1 0 0 0 0 0 0 -4.99994 4.99994 0 0. 9.
 15 1 1 2 0 0 2.76379 2.15462 -3.08655 4.99654 1.7768 0. -1
 -15 1 1 2 0 0 -2.76379 -2.15462 3.0688 4.98559 1.7768 0. 1
</event>
<event>
 4 80 1 -1 -1 -1
 11 -1 0 0 0 0 0 0 0.846453 0.846453 0 0. 9.
 -11 -1 0 0 0 0 0 0 -5 5 0 0. 9.
 15 1 1 2 0 0 -0.400679 0.205342 -3.40353 3.86581 1.7768 0. 1
 -15 1 1 2 0 0 0.400679 -0.205342 -0.750016 1.98065 1.7768 0. -1
</event>
<event>
 4 80 1 -1 -1 -1
 11 -1 0 0 0 0 0 0 4.99999 4.99999 0 0. 9.
 -11 -1 0 0 0 0 0 0 -4.99797 4.99797 0 0. 9.
 15 1 1 2 0 0 -3.38507 2.90744 1.3867 4.99926 1.7768 0. -1
 -15 1 1 2 0 0 3.38507 -2.90744 -1.38469 4.9987 1.7768 0. 1
</event>
<event>
 4 80 1 -1 -1 -1
 11 -1 0 0 0 0 0 0 5 5 0 0. 9.
 -11 -1 0 0 0 0 0 0 -5 5 0 0. 9.
 15 1 1 2 0 0 -3.75068 -1.11724 2.5547 5 1.7768 0. 1
 -15 1 1 2 0 0 3.75068 1.11724 -2.5547 5 1.7768 0. -1
</event>
<event>
 4 80 1 -1 -1 -1
 11 -1 0 0 0 0 0 0 5 5 0 0. 9.
 -11 -1 0 0 0 0 0 0 -5 5 0 0. 9.
 15 1 1 2 0 0 2.03532 -4.13066 0.798357 5 1.7768 0. 1
 -15 1 1 2 0 0 -2.03532 4.13066 -0.798357 5 1.7768 0. -1
</event>
<event>
 4 80 1 -1 -1 -1
 11 -1 0 0 0 0 0 0 4.87079 4.87079 0 0. 9.
 -11 -1 0 0 0 0 0 0 -4.99954 4.99954 0 0. 9.
 15 1 1 2 0 0 -3.74466 1.891 1.832 4.91043 1.7768 0. -1
 -15 1 1 2 0 0 3.74466 -1.891 -1.96075 4.9599 1.7768 0. 1
</event>
<event>
 4 80 1 -1 -1 -1
 11 -1 0 0 0 0 0 0 5 5 0 0. 9.
 -11 -1 0 0 0 0 0 0 -5 5 0 0. 9.
 15 1 1 2 0 0 2.10007 3.96823 1.29813 5 1.7768 0. 1
 -15 1 1 2 0 0 -2.10007 -3.96823 -1.29813 5 1.7768 0. -1
</event>
<event>
 4 80 1 -1 -1 -1
 11 -1 0 0 0 0 0 0 5 5 0 0. 9.
 -11 -1 0 0 0 0 0 0 -5 5 0 0. 9.
 15 1 1 2 0 0 2.87478 -3.64866 0.514946 5 1.7768 0. -1
 -15 1 1 2 0 0 -2.87478 3.64866 -0.514946 5 1.7768 0. 1
</event>
<event>
 4 80 1 -1 -1 -1
 11 -1 0 0 0 0 0 0 5 5 0 0. 9.
 -11 -1 0 0 0 0 0 0 -5 5 0 0. 9.
 15 1 1 2 0 0 0.403928 -0.453998 -4.6339 5 1.7768 0. 1
 -15 1 1 2 0 0 -0.403928 0.453998 4.6339 5 1.7768 0. -1
</event>
<event>
 4 80 1 -1 -1 -1
 11 -1 0 0 0 0 0 0 4.91424 4.91424 0 0. 9.
 -11 -1 0 0 0 0 0 0 -5 5 0 0. 9.
 15 1 1 2 0 0 -1.84152 3.32855 -2.67793 4.97991 1.7768 0. -1
 -15 1 1 2 0 0 1.84152 -3.32855 2.59217 4.93433 1.7768 0. 1
</event>
<event>
 4 80 1 -1 -1 -1
 11 -1 0 0 0 0 0 0 4.99589 4.99589 0 0. 9.
 -11 -1 0 0 0 0 0 0 -4.96233 4.96233 0 0. 9.
 15 1 1 2 0 0 -0.847352 -2.42892 -3.85827 4.96605 1.7768 0. 1
 -15 1 1 2 0 0 0.847352 2.42892 3.89184 4.99217 1.7768 0. -1
</event>
<event>
 4 80 1 -1 -1 -1
 11 -1 0 0 0 0 0 0 5 5 0 0. 9.
 -11 -1 0 0 0 0 0 0 -5 5 0 0. 9.
 15 1 1 2 0 0 -3.53294 2.98399 -0.675554 5 1.7768 0. 1
 -15 1 1 2 0 0 3.53294 -2.98399 0.675554 5 1.7768 0. -1
</event>
<event>
 4 80 1 -1 -1 -1
 11 -1 0 0 0 0 0 0 5 5 0 0. 9.
 -11 -1 0 0 0 0 0 0 -5 5 0 0. 9.
 15 1 1 2 0 0 -1.01543 -1.0397 -4.44187 5 1.7768 0. 1
 -15 1 1 2 0 0 1.01543 1.0397 4.44187 5 1.7768 0. -1
</event>
<event>
 4 80 1 -1 -1 -1
 11 -1 0 0 0 0 0 0 5 5 0 0. 9.
 -11 -1 0 0 0 0 0 0 -0.729025 0.729025 0 0. 9.
 15 1 1 2 0 0 -0.180378 -0.393319 2.95748 3.47731 1.7768 0. -1
 -15 1 1 2 0 0 0.180378 0.393319 1.31349 2.25172 1.7768 0. 1
</event>
<event>
 4 80 1 -1 -1 -1
 11 -1 0 0 0 0 0 0 5 5 0 0. 9.
 -11 -1 0 0 0 0 0 0 -5 5 0 0. 9.
 15 1 1 2 0 0 3.16227 -2.76417 -2.04979 5 1.7768 0. 1
 -15 1 1 2 0 0 -3.16227 2.76417 2.04979 5 1.7768 0. -1
</event>
<event>
 4 80 1 -1 -1 -1
 11 -1 0 0 0 0 0 0 5 5 0 0. 9.
 -11 -1 0 0 0 0 0 0 -4.7991 4.7991 0 0. 9.
 15 1 1 2 0 0 -0.0373363 -4.56395 0.0181387 4.89786 1.7768 0. -1
 -15 1 1 2 0 0 0.0373363 4.56395 0.18276 4.90124 1.7768 0. 1
</event>
<event>
 4 80 1 -1 -1 -1
 11 -1 0 0 0 0 0 0 5 5 0 0. 9.
 -11 -1 0 0 0 0 0 0 -4.99999 4.99999 0 0. 9.
 15 1 1 2 0 0 2.86976 -0.951901 3.56379 5 1.7768 0. 1
 -15 1 1 2 0 0 -2.86976 0.951901 -3.56379 5 1.7768 0. -1
</event>
<event>
 4 80 1 -1 -1 -1
 11 -1 0 0 0 0 0 0 4.85389 4.85389 0 0. 9.
 -11 -1 0 0 0 0 0 0 -4.07796 4.07796 0 0. 9.
 15 1 1 2 0 0 1.08628 2.33773 3.56085 4.74156 1.7768 0. -1
 -15 1 1 2 0 0 -1.08628 -2.33773 -2.78493 4.19029 1.7768 0. 1
</event>
<event>
 4 80 1 -1 -1 -1
 11 -1 0 0 0 0 0 0 5 5 0 0. 9.
 -11 -1 0 0 0 0 0 0 -5 5 0 0. 9.
 15 1 1 2 0 0 -2.70608 -0.768292 3.73217 5 1.7768 0. 1
 -15 1 1 2 0 0 2.70608 0.768292 -3.73217 5 1.7768 0. -1
</event>
<event>
 4 80 1 -1 -1 -1
 11 -1 0 0 0 0 0 0 5 5 0 0. 9.
 -11 -1 0 0 0 0 0 0 -5 5 0 0. 9.
 15 1 1 2 0 0 3.13577 -1.30603 -3.20991 5 1.7768 0. -1
 -15 1 1 2 0 0 -3.13577 1.30603 3.20991 5 1.7768 0. 1
</event>
<event>
 4 80 1 -1 -1 -1
 11 -1 0 0 0 0 0 0 5 5 0 0. 9.
 -11 -1 0 0 0 0 0 0 -5 5 0 0. 9.
 15 1 1 2 0 0 -4.45961 0.193895 1.38439 5 1.7768 0. 1
 -15 1 1 2 0 0 4.45961 -0.193895 -1.38439 5 1.7768 0. -1
</event>
<event>
 4 80 1 -1 -1 -1
 11 -1 0 0 0 0 0 0 4.99996 4.99996 0 0. 9.
 -11 -1 0 0 0 0 0 0 -2.9773 2.9773 0 0. 9.
 15 1 1 2 0 0 2.80608 -0.582541 2.94955 4.48007 1.7768 0. -1
 -15 1 1 2 0 0 -2.80608 0.582541 -0.926896 3.49719 1.7768 0. 1
</event>
<event>
 4 80 1 -1 -1 -1
 11 -1 0 0 0 0 0 0 5 5 0 0. 9.
 -11 -1 0 0 0 0 0 0 -5 5 0 0. 9.
 15 1 1 2 0 0 -0.856168 -4.31488 -1.5783 5 1.7768 0. -1
 -15 1 1 2 0 0 0.856168 4.31488 1.5783 5 1.7768 0. 1
</event>
<event>
 4 80 1 -1 -1 -1
 11 -1 0 0 0 0 0 0 4.99991 4.99991 0 0. 9.
 -11 -1 0 0 0 0 0 0 -1.45449 1.45449 0 0. 9.
 15 1 1 2 0 0 0.232182 -0.361115 4.14518 4.5304 1.7768 0. 1
 -15 1 1 2 0 0 -0.232182 0.361115 -0.599763 1.924 1.7768 0. -1
</event>
<event>
 4 80 1 -1 -1 -1
 11 -1 0 0 0 0 0 0 5 5 0 0. 9.
 -11 -1 0 0 0 0 0 0 -5 5 0 0. 9.
 15 1 1 2 0 0 2.08402 -1.07126 -4.0437 5 1.7768 0. 1
 -15 1 1 2 0 0 -2.08402 1.07126 4.0437 5 1.7768 0. -1
</event>
<event>
 4 80 1 -1 -1 -1
 11 -1 0 0 0 0 0 0 4.60311 4.60311 0 0. 9.
 -11 -1 0 0 0 0 0 0 -5 5 0 0. 9.
 15 1 1 2 0 0 1.89706 -3.77328 -1.6214 4.86037 1.7768 0. -1
 -15 1 1 2 0 0 -1.89706 3.77328 1.22452 4.74275 1.7768 0. 1
</event>
<event>
 4 80 1 -1 -1 -1
 11 -1 0 0 0 0 0 0 5 5 0 0. 9.
 -11 -1 0 0 0 0 0 0 -5 5 0 0. 9.
 15 1 1 2 0 0 4.03504 -0.637269 2.27037 5 1.7768 0. -1
 -15 1 1 2 0 0 -4.03504 0.637269 -2.27037 5 1.7768 0. 1
</event>
<event>
 4 80 1 -1 -1 -1
 11 -1 0 0 0 0 0 0 5 5 0 0. 9.
 -11 -1 0 0 0 0 0 0 -4.99997 4.99997 0 0. 9.
 15 1 1 2 0 0 2.52061 -0.897971 3.83176 4.99999 1.7768 0. 1
 -15 1 1 2 0 0 -2.52061 0.897971 -3.83173 4.99997 1.7768 0. -1
</event>
<event>
 4 80 1 -1 -1 -1
 11 -1 0 0 0 0 0 0 5 5 0 0. 9.
 -11 -1 0 0 0 0 0 0 -4.99997 4.99997 0 0. 9.
 15 1 1 2 0 0 -0.459198 3.02456 3.53318 5 1.7768 0. -1
 -15 1 1 2 0 0 0.459198 -3.02456 -3.53316 4.99998 1.7768 0. 1
</event>
<event>
 4 80 1 -1 -1 -1
 11 -1 0 0 0 0 0 0 5 5 0 0. 9.
 -11 -1 0 0 0 0 0 0 -5 5 0 0. 9.
 15 1 1 2 0 0 -1.5181 -4.42013 0.00621345 5 1.7768 0. 1
 -15 1 1 2 0 0 1.5181 4.42013 -0.0062133 5 1.7768 0. -1
</event>
<event>
 4 80 1 -1 -1 -1
 11 -1 0 0 0 0 0 0 5 5 0 0. 9.
 -11 -1 0 0 0 0 0 0 -5 5 0 0. 9.
 15 1 1 2 0 0 2.93701 -3.55662 -0.75283 5 1.7768 0. -1
 -15 1 1 2 0 0 -2.93701 3.55662 0.75283 5 1.7768 0. 1
</event>
<event>
 4 80 1 -1 -1 -1
 11 -1 0 0 0 0 0 0 5 5 0 0. 9.
 -11 -1 0 0 0 0 0 0 -4.99866 4.99866 0 0. 9.
 15 1 1 2 0 0 -3.75835 -1.23986 -2.48391 4.999 1.7768 0. -1
 -15 1 1 2 0 0 3.75835 1.23986 2.48525 4.99966 1.7768 0. 1
</event>
<event>
 4 80 1 -1 -1 -1
 11 -1 0 0 0 0 0 0 5 5 0 0. 9.
 -11 -1 0 0 0 0 0 0 -5 5 0 0. 9.
 15 1 1 2 0 0 -0.393834 3.04653 -3.52219 5 1.7768 0. 1
 -15 1 1 2 0 0 0.393834 -3.04653 3.52219 5 1.7768 0. -1
</event>
<event>
 4 80 1 -1 -1 -1
 11 -1 0 0 0 0 0 0 4.99987 4.99987 0 0. 9.
 -11 -1 0 0 0 0 0 0 -5 5 0 0. 9.
 15 1 1 2 0 0 2.13377 -4.11226 0.614701 4.99993 1.7768 0. 1
 -15 1 1 2 0 0 -2.13377 4.11226 -0.614827 4.99994 1.7768 0. -1
</event>
<event>
 4 80 1 -1 -1 -1
 11 -1 0 0 0 0 0 0 4.99999 4.99999 0 0. 9.
 -11 -1 0 0 0 0 0 0 -4.99079 4.99079 0 0. 9.
 15 1 1 2 0 0 3.83561 2.60404 -0.546048 4.99488 1.7768 0. 1
 -15 1 1 2 0 0 -3.83561 -2.60404 0.555249 4.9959 1.7768 0. -1
</event>
<event>
 4 80 1 -1 -1 -1
 11 -1 0 0 0 0 0 0 5 5 0 0. 9.
 -11 -1 0 0 0 0 0 0 -5 5 0 0. 9.
 15 1 1 2 0 0 0.418034 -2.27057 -4.0635 5 1.7768 0. 1
 -15 1 1 2 0 0 -0.418034 2.27057 4.0635 5 1.7768 0. -1
</event>
<event>
 4 80 1 -1 -1 -1
 11 -1 0 0 0 0 0 0 2.22582 2.22582 0 0. 9.
 -11 -1 0 0 0 0 0 0 -5 5 0 0. 9.
 15 1 1 2 0 0 -1.78798 -1.46107 0.372482 2.93736 1.7768 0. -1
 -15 1 1 2 0 0 1.78798 1.46107 -3.14666 4.28846 1.7768 0. 1
</event>
<event>
 4 80 1 -1 -1 -1
 11 -1 0 0 0 0 0 0 4.99999 4.99999 0 0. 9.
 -11 -1 0 0 0 0 0 0 -5 5 0 0. 9.
 15 1 1 2 0 0 1.46129 0.786229 -4.36907 5 1.7768 0. 1
 -15 1 1 2 0 0 -1.46129 -0.786229 4.36905 4.99999 1.7768 0. -1
</event>
<event>
 4 80 1 -1 -1 -1
 11 -1 0 0 0 0 0 0 4.35219 4.35219 0 0. 9.
 -11 -1 0 0 0 0 0 0 -5 5 0 0. 9.
 15 1 1 2 0 0 1.60093 0.802916 -4.25707 4.94854 1.7768 0. -1
 -15 1 1 2 0 0 -1.60093 -0.802916 3.60926 4.40365 1.7768 0. 1
</event>
<event>
 4 80 1 -1 -1 -1
 11 -1 0 0 0 0 0 0 1.11209 1.11209 0 0. 9.
 -11 -1 0 0 0 0 0 0 -5 5 0 0. 9.
 15 1 1 2 0 0 -0.591703 1.17982 -0.890575 2.38599 1.7768 0. -1
 -15 1 1 2 0 0 0.591703 -1.17982 -2.99733 3.7261 1.7768 0. 1
</event>
<event>
 4 80 1 -1 -1 -1
 11 -1 0 0 0 0 0 0 5 5 0 0. 9.
 -11 -1 0 0 0 0 0 0 -4.71245 4.71245 0 0. 9.
 15 1 1 2 0 0 -3.21817 -1.56607 -2.6134 4.77459 1.7768 0. 1
 -15 1 1 2 0 0 3.21817 1.56607 2.90095 4.93785 1.7768 0. -1
</event>
<event>
 4 80 1 -1 -1 -1
 11 -1 0 0 0 0 0 0 4.99999 4.99999 0 0. 9.
 -11 -1 0 0 0 0 0 0 -4.8041 4.8041 0 0. 9.
 15 1 1 2 0 0 3.01649 -1.12201 3.33967 4.96682 1.7768 0. 1
 -15 1 1 2 0 0 -3.01649 1.12201 -3.14378 4.83727 1.7768 0. -1
</event>
<event>
 4 80 1 -1 -1 -1
 11 -1 0 0 0 0 0 0 4.99999 4.99999 0 0. 9.
 -11 -1 0 0 0 0 0 0 -4.97944 4.97944 0 0. 9.
 15 1 1 2 0 0 2.82233 -0.0454521 3.72133 4.99736 1.7768 0. -1
 -15 1 1 2 0 0 -2.82233 0.0454521 -3.70078 4.98208 1.7768 0. 1
</event>
<event>
 4 80 1 -1 -1 -1
 11 -1 0 0 0 0 0 0 5 5 0 0. 9.
 -11 -1 0 0 0 0 0 0 -5 5 0 0. 9.
 15 1 1 2 0 0 -0.897672 -1.12355 -4.4468 5 1.7768 0. 1
 -15 1 1 2 0 0 0.897672 1.12355 4.44681 5 1.7768 0. -1
</event>
<event>
 4 80 1 -1 -1 -1
 11 -1 0 0 0 0 0 0 4.90732 4.90732 0 0. 9.
 -11 -1 0 0 0 0 0 0 -5 5 0 0. 9.
 15 1 1 2 0 0 1.40641 1.30743 4.15997 4.91431 1.7768 0. 1
 -15 1 1 2 0 0 -1.40641 -1.30743 -4.25265 4.99301 1.7768 0. -1
</event>
<event>
 4 80 1 -1 -1 -1
 11 -1 0 0 0 0 0 0 4.68208 4.68208 0 0. 9.
 -11 -1 0 0 0 0 0 0 -5 5 0 0. 9.
 15 1 1 2 0 0 4.16673 -0.642681 -1.73396 4.89276 1.7768 0. 1
 -15 1 1 2 0 0 -4.16673 0.642681 1.41605 4.78933 1.7768 0. -1
</event>
<event>
 4 80 1 -1 -1 -1
 11 -1 0 0 0 0 0 0 5 5 0 0. 9.
 -11 -1 0 0 0 0 0 0 -5 5 0 0. 9.
 15 1 1 2 0 0 0.819304 4.56384 0.585109 5 1.7768 0. 1
 -15 1 1 2 0 0 -0.819304 -4.56384 -0.585109 5 1.7768 0. -1
</event>
<event>
 4 80 1 -1 -1 -1
 11 -1 0 0 0 0 0 0 5 5 0 0. 9.
 -11 -1 0 0 0 0 0 0 -5 5 0 0. 9.
 15 1 1 2 0 0 -1.22448 -1.49826 -4.25419 5 1.7768 0. -1
 -15 1 1 2 0 0 1.22448 1.49826 4.25419 5 1.7768 0. 1
</event>
<event>
 4 80 1 -1 -1 -1
 11 -1 0 0 0 0 0 0 4.96874 4.96874 0 0. 9.
 -11 -1 0 0 0 0 0 0 -4.81231 4.81231 0 0. 9.
 15 1 1 2 0 0 2.4497 -3.26491 2.10153 4.92289 1.7768 0. 1
 -15 1 1 2 0 0 -2.4497 3.26491 -1.9451 4.85817 1.7768 0. -1
</event>
<event>
 4 80 1 -1 -1 -1
 11 -1 0 0 0 0 0 0 5 5 0 0. 9.
 -11 -1 0 0 0 0 0 0 -3.0841 3.0841 0 0. 9.
 15 1 1 2 0 0 1.71864 -0.882383 -2.04839 3.32956 1.7768 0. 1
 -15 1 1 2 0 0 -1.71864 0.882383 3.96429 4.75454 1.7768 0. -1
</event>
<event>
 4 80 1 -1 -1 -1
 11 -1 0 0 0 0 0 0 5 5 0 0. 9.
 -11 -1 0 0 0 0 0 0 -5 5 0 0. 9.
 15 1 1 2 0 0 -4.34233 -0.404939 -1.68003 5 1.7768 0. 1
 -15 1 1 2 0 0 4.34233 0.404939 1.68003 5 1.7768 0. -1
</event>
<event>
 4 80 1 -1 -1 -1
 11 -1 0 0 0 0 0 0 4.91627 4.91627 0 0. 9.
 -11 -1 0 0 0 0 0 0 -4.9964 4.9964 0 0. 9.
 15 1 1 2 0 0 2.21604 -2.84224 2.86119 4.93288 1.7768 0. 1
 -15 1 1 2 0 0 -2.21604 2.84224 -2.94132 4.97979 1.7768 0. -1
</event>
<event>
 4 80 1 -1 -1 -1
 11 -1 0 0 0 0 0 0 4.93622 4.93622 0 0. 9.
 -11 -1 0 0 0 0 0 0 -4.55323 4.55323 0 0. 9.
 15 1 1 2 0 0 3.73463 0.463476 -2.08098 4.65301 1.7768 0. -1
 -15 1 1 2 0 0 -3.73463 -0.463476 2.46397 4.83644 1.7768 0. 1
</event>
<event>
 4 80 1 -1 -1 -1
 11 -1 0 0 0 0 0 0 5 5 0 0. 9.
 -11 -1 0 0 0 0 0 0 -4.99364 4.99364 0 0. 9.
 15 1 1 2 0 0 1.7909 -2.18045 3.72457 4.99919 1.7768 0. 1
 -15 1 1 2 0 0 -1.7909 2.18045 -3.71821 4.99445 1.7768 0. -1
</event>
<event>
 4 80 1 -1 -1 -1
 11 -1 0 0 0 0 0 0 5 5 0 0. 9.
 -11 -1 0 0 0 0 0 0 -5 5 0 0. 9.
 15 1 1 2 0 0 -3.88344 -2.14937 -1.46334 5 1.7768 0. 1
 -15 1 1 2 0 0 3.88344 2.14937 1.46334 5 1.7768 0. -1
</event>
<event>
 4 80 1 -1 -1 -1
 11 -1 0 0 0 0 0 0 4.99996 4.99996 0 0. 9.
 -11 -1 0 0 0 0 0 0 -4.99995 4.99995 0 0. 9.
 15 1 1 2 0 0 -0.948022 0.136343 -4.57432 4.99995 1.7768 0. 1
 -15 1 1 2 0 0 0.948022 -0.136343 4.57434 4.99996 1.7768 0. -1
</event>
<event>
 4 80 1 -1 -1 -1
 11 -1 0 0 0 0 0 0 4.70623 4.70623 0 0. 9.
 -11 -1 0 0 0 0 0 0 -4.99998 4.99998 0 0. 9.
 15 1 1 2 0 0 1.534 -2.38481 -3.6603 4.95944 1.7768 0. -1
 -15 1 1 2 0 0 -1.534 2.38481 3.36655 4.74677 1.7768 0. 1
</event>
<event>
 4 80 1 -1 -1 -1
 11 -1 0 0 0 0 0 0 4.99995 4.99995 0 0. 9.
 -11 -1 0 0 0 0 0 0 -4.99996 4.99996 0 0. 9.
 15 1 1 2 0 0 -2.91772 -0.339508 -3.63503 4.99996 1.7768 0. -1
 -15 1 1 2 0 0 2.91772 0.339508 3.63502 4.99995 1.7768 0. 1
</event>
<event>
 4 80 1 -1 -1 -1
 11 -1 0 0 0 0 0 0 1.43316 1.43316 0 0. 9.
 -11 -1 0 0 0 0 0 0 -4.99951 4.99951 0 0. 9.
 15 1 1 2 0 0 0.673811 -1.87828 -1.5917 3.11018 1.7768 0. 1
 -15 1 1 2 0 0 -0.673811 1.87828 -1.97465 3.32249 1.7768 0. -1
</event>
<event>
 4 80 1 -1 -1 -1
 11 -1 0 0 0 0 0 0 4.98763 4.98763 0 0. 9.
 -11 -1 0 0 0 0 0 0 -4.69301 4.69301 0 0. 9.
 15 1 1 2 0 0 -0.936131 2.0495 4.0443 4.95892 1.7768 0. 1
 -15 1 1 2 0 0 0.936131 -2.0495 -3.74968 4.72172 1.7768 0. -1
</event>
<event>
 4 80 1 -1 -1 -1
 11 -1 0 0 0 0 0 0 5 5 0 0. 9.
 -11 -1 0 0 0 0 0 0 -5 5 0 0. 9.
 15 1 1 2 0 0 -1.6149 -2.62739 -3.51158 5 1.7768 0. 1
 -15 1 1 2 0 0 1.6149 2.62739 3.51158 5 1.7768 0. -1
</event>
<event>
 4 80 1 -1 -1 -1
 11 -1 0 0 0 0 0 0 5 5 0 0. 9.
 -11 -1 0 0 0 0 0 0 -5 5 0 0. 9.
 15 1 1 2 0 0 -1.59136 -4.35518 -0.584974 5 1.7768 0. 1
 -15 1 1 2 0 0 1.59136 4.35518 0.584974 5 1.7768 0. -1
</event>
<event>
 4 80 1 -1 -1 -1
 11 -1 0 0 0 0 0 0 5 5 0 0. 9.
 -11 -1 0 0 0 0 0 0 -5 5 0 0. 9.
 15 1 1 2 0 0 -1.09134 2.49432 -3.79863 5 1.7768 0. 1
 -15 1 1 2 0 0 1.09134 -2.49432 3.79863 5 1.7768 0. -1
</event>
<event>
 4 80 1 -1 -1 -1
 11 -1 0 0 0 0 0 0 4.93706 4.93706 0 0. 9.
 -11 -1 0 0 0 0 0 0 -5 5 0 0. 9.
 15 1 1 2 0 0 -0.928904 4.53316 0.307833 4.96638 1.7768 0. -1
 -15 1 1 2 0 0 0.928904 -4.53316 -0.370773 4.97068 1.7768 0. 1
</event>
<event>
 4 80 1 -1 -1 -1
 11 -1 0 0 0 0 0 0 4.9916 4.9916 0 0. 9.
 -11 -1 0 0 0 0 0 0 -5 5 0 0. 9.
 15 1 1 2 0 0 -3.48746 -2.59074 -1.71475 4.99724 1.7768 0. -1
 -15 1 1 2 0 0 3.48746 2.59074 1.70636 4.99436 1.7768 0. 1
</event>
<event>
 4 80 1 -1 -1 -1
 11 -1 0 0 0 0 0 0 5 5 0 0. 9.
 -11 -1 0 0 0 0 0 0 -5 5 0 0. 9.
 15 1 1 2 0 0 3.84332 0.954811 2.48183 5 1.7768 0. 1
 -15 1 1 2 0 0 -3.84332 -0.954811 -2.48183 5 1.7768 0. -1
</event>
<event>
 4 80 1 -1 -1 -1
 11 -1 0 0 0 0 0 0 3.51566 3.51566 0 0. 9.
 -11 -1 0 0 0 0 0 0 -5 5 0 0. 9.
 15 1 1 2 0 0 2.18898 -2.26097 1.41618 3.88161 1.7768 0. -1
 -15 1 1 2 0 0 -2.18898 2.26097 -2.90052 4.63405 1.7768 0. 1
</event>
<event>
 4 80 1 -1 -1 -1
 11 -1 0 0 0 0 0 0 5 5 0 0. 9.
 -11 -1 0 0 0 0 0 0 -5 5 0 0. 9.
 15 1 1 2 0 0 1.52978 4.35051 0.758355 5 1.7768 0. 1
 -15 1 1 2 0 0 -1.52978 -4.35051 -0.758355 5 1.7768 0. -1
</event>
<event>
 4 80 1 -1 -1 -1
 11 -1 0 0 0 0 0 0 4.89618 4.89618 0 0. 9.
 -11 -1 0 0 0 0 0 0 -5 5 0 0. 9.
 15 1 1 2 0 0 -0.396399 -2.18311 3.99801 4.9056 1.7768 0. -1
 -15 1 1 2 0 0 0.396399 2.18311 -4.10183 4.99058 1.7768 0. 1
</event>
<event>
 4 80 1 -1 -1 -1
 11 -1 0 0 0 0 0 0 4.99705 4.99705 0 0. 9.
 -11 -1 0 0 0 0 0 0 -4.99604 4.99604 0 0. 9.
 15 1 1 2 0 0 -0.993186 -0.938227 4.46604 4.997 1.7768 0. 1
 -15 1 1 2 0 0 0.993186 0.938227 -4.46503 4.99609 1.7768 0. -1
</event>
<event>
 4 80 1 -1 -1 -1
 11 -1 0 0 0 0 0 0 4.99908 4.99908 0 0. 9.
 -11 -1 0 0 0 0 0 0 -5 5 0 0. 9.
 15 1 1 2 0 0 -1.09053 -1.27186 -4.36289 4.99994 1.7768 0. -1
 -15 1 1 2 0 0 1.09053 1.27186 4.36197 4.99914 1.7768 0. 1
</event>
<event>
 4 80 1 -1 -1 -1
 11 -1 0 0 0 0 0 0 4.99997 4.99997 0 0. 9.
 -11 -1 0 0 0 0 0 0 -5 5 0 0. 9.
 15 1 1 2 0 0 1.73901 2.48771 3.55375 4.99998 1.7768 0. -1
 -15 1 1 2 0 0 -1.73901 -2.48771 -3.55378 5 1.7768 0. 1
</event>
<event>
 4 80 1 -1 -1 -1
 11 -1 0 0 0 0 0 0 5 5 0 0. 9.
 -11 -1 0 0 0 0 0 0 -4.98538 4.98538 0 0. 9.
 15 1 1 2 0 0 -4.07507 1.76692 1.43594 4.99478 1.7768 0. -1
 -15 1 1 2 0 0 4.07507 -1.76692 -1.42132 4.9906 1.7768 0. 1
</event>
<event>
 4 80 1 -1 -1 -1
 11 -1 0 0 0 0 0 0 5 5 0 0. 9.
 -11 -1 0 0 0 0 0 0 -5 5 0 0. 9.
 15 1 1 2 0 0 -0.909814 2.20193 4.0207 5 1.7768 0. -1
 -15 1 1 2 0 0 0.909814 -2.20193 -4.0207 5 1.7768 0. 1
</event>
<event>
 4 80 1 -1 -1 -1
 11 -1 0 0 0 0 0 0 5 5 0 0. 9.
 -11 -1 0 0 0 0 0 0 -5 5 0 0. 9.
 15 1 1 2 0 0 -2.55638 -3.73487 -1.1653 5 1.7768 0. -1
 -15 1 1 2 0 0 2.55638 3.73487 1.1653 5 1.7768 0. 1
</event>
<event>
 4 80 1 -1 -1 -1
 11 -1 0 0 0 0 0 0 0.98132 0.98132 0 0. 9.
 -11 -1 0 0 0 0 0 0 -5 5 0 0. 9.
 15 1 1 2 0 0 -0.848999 0.885799 -1.3432 2.5431 1.7768 0. 1
 -15 1 1 2 0 0 0.848999 -0.885799 -2.67548 3.43822 1.7768 0. -1
</event>
<event>
 4 80 1 -1 -1 -1
 11 -1 0 0 0 0 0 0 5 5 0 0. 9.
 -11 -1 0 0 0 0 0 0 -5 5 0 0. 9.
 15 1 1 2 0 0 -1.90719 -3.81922 -1.90222 5 1.7768 0. 1
 -15 1 1 2 0 0 1.90719 3.81922 1.90222 5 1.7768 0. -1
</event>
<event>
 4 80 1 -1 -1 -1
 11 -1 0 0 0 0 0 0 5 5 0 0. 9.
 -11 -1 0 0 0 0 0 0 -4.99902 4.99902 0 0. 9.
 15 1 1 2 0 0 2.1208 1.0574 4.02808 4.99991 1.7768 0. 1
 -15 1 1 2 0 0 -2.1208 -1.0574 -4.02711 4.99912 1.7768 0. -1
</event>
<event>
 4 80 1 -1 -1 -1
 11 -1 0 0 0 0 0 0 3.86725 3.86725 0 0. 9.
 -11 -1 0 0 0 0 0 0 -5 5 0 0. 9.
 15 1 1 2 0 0 3.56477 1.8625 -0.611783 4.43942 1.7768 0. 1
 -15 1 1 2 0 0 -3.56477 -1.8625 -0.520972 4.42782 1.7768 0. -1
</event>
<event>
 4 80 1 -1 -1 -1
 11 -1 0 0 0 0 0 0 4.79389 4.79389 0 0. 9.
 -11 -1 0 0 0 0 0 0 -3.67106 3.67106 0 0. 9.
 15 1 1 2 0 0 1.86003 0.652778 -2.7164 3.79769 1.7768 0. 1
 -15 1 1 2 0 0 -1.86003 -0.652778 3.83924 4.66726 1.7768 0. -1
</event>
<event>
 4 80 1 -1 -1 -1
 11 -1 0 0 0 0 0 0 5 5 0 0. 9.
 -11 -1 0 0 0 0 0 0 -5 5 0 0. 9.
 15 1 1 2 0 0 3.98037 -2.44848 -0.0621531 5 1.7768 0. -1
 -15 1 1 2 0 0 -3.98037 2.44848 0.0621531 5 1.7768 0. 1
</event>
<event>
 4 80 1 -1 -1 -1
 11 -1 0 0 0 0 0 0 5 5 0 0. 9.
 -11 -1 0 0 0 0 0 0 -2.89105 2.89105 0 0. 9.
 15 1 1 2 0 0 -2.68393 -0.52097 -0.974477 3.40327 1.7768 0. 1
 -15 1 1 2 0 0 2.68393 0.52097 3.08343 4.48778 1.7768 0. -1
</event>
<event>
 4 80 1 -1 -1 -1
 11 -1 0 0 0 0 0 0 2.70185 2.70185 0 0. 9.
 -11 -1 0 0 0 0 0 0 -5 5 0 0. 9.
 15 1 1 2 0 0 1.1603 -1.56695 -3.8305 4.65104 1.7768 0. 1
 -15 1 1 2 0 0 -1.1603 1.56695 1.53236 3.05082 1.7768 0. -1
</event>
<event>
 4 80 1 -1 -1 -1
 11 -1 0 0 0 0 0 0 4.9973 4.9973 0 0. 9.
 -11 -1 0 0 0 0 0 0 -5 5 0 0. 9.
 15 1 1 2 0 0 4.63036 -0.00944441 0.621909 4.99848 1.7768 0. 1
 -15 1 1 2 0 0 -4.63036 0.00944441 -0.624607 4.99882 1.7768 0. -1
</event>
<event>
 4 80 1 -1 -1 -1
 11 -1 0 0 0 0 0 0 5 5 0 0. 9.
 -11 -1 0 0 0 0 0 0 -5 5 0 0. 9.
 15 1 1 2 0 0 -2.84727 -1.63869 -3.32416 5 1.7768 0. -1
 -15 1 1 2 0 0 2.84727 1.63869 3.32416 5 1.7768 0. 1
</event>
<event>
 4 80 1 -1 -1 -1
 11 -1 0 0 0 0 0 0 5 5 0 0. 9.
 -11 -1 0 0 0 0 0 0 -4.99995 4.99995 0 0. 9.
 15 1 1 2 0 0 -3.95767 -2.47548 0.225414 4.99997 1.7768 0. 1
 -15 1 1 2 0 0 3.95767 2.47548 -0.225361 4.99997 1.7768 0. -1
</event>
<event>
 4 80 1 -1 -1 -1
 11 -1 0 0 0 0 0 0 4.97191 4.97191 0 0. 9.
 -11 -1 0 0 0 0 0 0 -5 5 0 0. 9.
 15 1 1 2 0 0 4.56484 0.66623 -0.662266 4.98778 1.7768 0. 1
 -15 1 1 2 0 0 -4.56484 -0.66623 0.634175 4.98413 1.7768 0. -1
</event>
<event>
 4 80 1 -1 -1 -1
 11 -1 0 0 0 0 0 0 5 5 0 0. 9.
 -11 -1 0 0 0 0 0 0 -5 5 0 0. 9.
 15 1 1 2 0 0 2.72258 2.73866 2.6324 5 1.7768 0. -1
 -15 1 1 2 0 0 -2.72258 -2.73866 -2.6324 5 1.7768 0. 1
</event>
<event>
 4 80 1 -1 -1 -1
 11 -1 0 0 0 0 0 0 0.839547 0.839547 0 0. 9.
 -11 -1 0 0 0 0 0 0 -5 5 0 0. 9.
 15 1 1 2 0 0 -0.43663 0.284313 -3.32954 3.80986 1.7768 0. -1
 -15 1 1 2 0 0 0.43663 -0.284313 -0.830917 2.02969 1.7768 0. 1
</event>
<event>
 4 80 1 -1 -1 -1
 11 -1 0 0 0 0 0 0 4.8386 4.8386 0 0. 9.
 -11 -1 0 0 0 0 0 0 -3.43991 3.43991 0 0. 9.
 15 1 1 2 0 0 2.01391 0.605303 3.75397 4.65535 1.7768 0. -1
 -15 1 1 2 0 0 -2.01391 -0.605303 -2.35528 3.62316 1.7768 0. 1
</event>
<event>
 4 80 1 -1 -1 -1
 11 -1 0 0 0 0 0 0 5 5 0 0. 9.
 -11 -1 0 0 0 0 0 0 -4.98663 4.98663 0 0. 9.
 15 1 1 2 0 0 3.76009 2.58544 -0.969346 4.99201 1.7768 0. -1
 -15 1 1 2 0 0 -3.76009 -2.58544 0.98272 4.99462 1.7768 0. 1
</event>
<event>
 4 80 1 -1 -1 -1
 11 -1 0 0 0 0 0 0 5 5 0 0. 9.
 -11 -1 0 0 0 0 0 0 -5 5 0 0. 9.
 15 1 1 2 0 0 -2.4672 1.53632 -3.65991 5 1.7768 0. 1
 -15 1 1 2 0 0 2.4672 -1.53632 3.65991 5 1.7768 0. -1
</event>
<event>
 4 80 1 -1 -1 -1
 11 -1 0 0 0 0 0 0 5 5 0 0. 9.
 -11 -1 0 0 0 0 0 0 -4.99963 4.99963 0 0. 9.
 15 1 1 2 0 0 -1.8334 3.77362 2.05903 4.99989 1.7768 0. -1
 -15 1 1 2 0 0 1.8334 -3.77362 -2.05865 4.99974 1.7768 0. 1
</event>
<event>
 4 80 1 -1 -1 -1
 11 -1 0 0 0 0 0 0 5 5 0 0. 9.
 -11 -1 0 0 0 0 0 0 -5 5 0 0. 9.
 15 1 1 2 0 0 -1.01168 1.63232 -4.26079 5 1.7768 0. 1
 -15 1 1 2 0 0 1.01168 -1.63232 4.26079 5 1.7768 0. -1
</event>
<event>
 4 80 1 -1 -1 -1
 11 -1 0 0 0 0 0 0 3.25135 3.25135 0 0. 9.
 -11 -1 0 0 0 0 0 0 -4.04703 4.04703 0 0. 9.
 15 1 1 2 0 0 -2.37442 2.04063 0.0504172 3.60032 1.7768 0. 1
 -15 1 1 2 0 0 2.37442 -2.04063 -0.846093 3.69806 1.7768 0. -1
</event>
<event>
 4 80 1 -1 -1 -1
 11 -1 0 0 0 0 0 0 5 5 0 0. 9.
 -11 -1 0 0 0 0 0 0 -3.01026 3.01026 0 0. 9.
 15 1 1 2 0 0 0.900369 3.32843 1.06423 4.02236 1.7768 0. 1
 -15 1 1 2 0 0 -0.900369 -3.32843 0.925501 3.9879 1.7768 0. -1
</event>
<event>
 4 80 1 -1 -1 -1
 11 -1 0 0 0 0 0 0 5 5 0 0. 9.
 -11 -1 0 0 0 0 0 0 -5 5 0 0. 9.
 15 1 1 2 0 0 -1.01471 -3.75543 -2.59025 5 1.7768 0. -1
 -15 1 1 2 0 0 1.01471 3.75543 2.59025 5 1.7768 0. 1
</event>
<event>
 4 80 1 -1 -1 -1
 11 -1 0 0 0 0 0 0 4.98976 4.98976 0 0. 9.
 -11 -1 0 0 0 0 0 0 -5 5 0 0. 9.
 15 1 1 2 0 0 1.15558 -4.50034 0.445117 4.99442 1.7768 0. 1
 -15 1 1 2 0 0 -1.15558 4.50034 -0.455352 4.99534 1.7768 0. -1
</event>
<event>
 4 80 1 -1 -1 -1
 11 -1 0 0 0 0 0 0 4.99987 4.99987 0 0. 9.
 -11 -1 0 0 0 0 0 0 -4.99998 4.99998 0 0. 9.
 15 1 1 2 0 0 1.9819 -3.2468 2.71507 4.9999 1.7768 0. -1
 -15 1 1 2 0 0 -1.9819 3.2468 -2.71518 4.99995 1.7768 0. 1
</event>
<event>
 4 80 1 -1 -1 -1
 11 -1 0 0 0 0 0 0 4.60152 4.60152 0 0. 9.
 -11 -1 0 0 0 0 0 0 -5 5 0 0. 9.
 15 1 1 2 0 0 1.19894 0.234917 -4.48747 4.97873 1.7768 0. 1
 -15 1 1 2 0 0 -1.19894 -0.234917 4.08899 4.62279 1.7768 0. -1
</event>
<event>
 4 80 1 -1 -1 -1
 11 -1 0 0 0 0 0 0 5 5 0 0. 9.
 -11 -1 0 0 0 0 0 0 -5 5 0 0. 9.
 15 1 1 2 0 0 4.18316 2.03945 0.429095 5 1.7768 0. 1
 -15 1 1 2 0 0 -4.18316 -2.03945 -0.429095 5 1.7768 0. -1
</event>
<event>
 4 80 1 -1 -1 -1
 11 -1 0 0 0 0 0 0 1.49865 1.49865 0 0. 9.
 -11 -1 0 0 0 0 0 0 -5 5 0 0. 9.
 15 1 1 2 0 0 1.28625 1.63441 -1.63303 3.18594 1.7768 0. 1
 -15 1 1 2 0 0 -1.28625 -1.63441 -1.86831 3.31271 1.7768 0. -1
</event>
<event>
 4 80 1 -1 -1 -1
 11 -1 0 0 0 0 0 0 4.99997 4.99997 0 0. 9.
 -11 -1 0 0 0 0 0 0 -4.99514 4.99514 0 0. 9.
 15 1 1 2 0 0 -1.57482 3.49515 -2.66624 4.99627 1.7768 0. -1
 -15 1 1 2 0 0 1.57482 -3.49515 2.67107 4.99885 1.7768 0. 1
</event>
<event>
 4 80 1 -1 -1 -1
 11 -1 0 0 0 0 0 0 4.99997 4.99997 0 0. 9.
 -11 -1 0 0 0 0 0 0 -4.98488 4.98488 0 0. 9.
 15 1 1 2 0 0 2.87645 -3.21172 1.79007 4.99512 1.7768 0. -1
 -15 1 1 2 0 0 -2.87645 3.21172 -1.77498 4.98973 1.7768 0. 1
</event>
<event>
 4 80 1 -1 -1 -1
 11 -1 0 0 0 0 0 0 5 5 0 0. 9.
 -11 -1 0 0 0 0 0 0 -5 5 0 0. 9.
 15 1 1 2 0 0 2.11677 -4.10104 0.736927 5 1.7768 0. 1
 -15 1 1 2 0 0 -2.11677 4.10104 -0.736928 5 1.7768 0. -1
</event>
<event>
 4 80 1 -1 -1 -1
 11 -1 0 0 0 0 0 0 5 5 0 0. 9.
 -11 -1 0 0 0 0 0 0 -5 5 0 0. 9.
 15 1 1 2 0 0 2.80819 1.56255 -3.39334 5 1.7768 0. 1
 -15 1 1 2 0 0 -2.80819 -1.56255 3.39334 5 1.7768 0. -1
</event>
<event>
 4 80 1 -1 -1 -1
 11 -1 0 0 0 0 0 0 5 5 0 0. 9.
 -11 -1 0 0 0 0 0 0 -5 5 0 0. 9.
 15 1 1 2 0 0 -0.938882 1.16612 4.42729 5 1.7768 0. 1
 -15 1 1 2 0 0 0.938882 -1.16612 -4.42729 5 1.7768 0. -1
</event>
<event>
 4 80 1 -1 -1 -1
 11 -1 0 0 0 0 0 0 5 5 0 0. 9.
 -11 -1 0 0 0 0 0 0 -4.99941 4.99941 0 0. 9.
 15 1 1 2 0 0 -1.35205 3.32182 -2.99583 4.99953 1.7768 0. 1
 -15 1 1 2 0 0 1.35205 -3.32182 2.99642 4.99988 1.7768 0. -1
</event>
<event>
 4 80 1 -1 -1 -1
 11 -1 0 0 0 0 0 0 5 5 0 0. 9.
 -11 -1 0 0 0 0 0 0 -5 5 0 0. 9.
 15 1 1 2 0 0 0.0457559 2.62699 -3.86511 5 1.7768 0. 1
 -15 1 1 2 0 0 -0.0457559 -2.62699 3.86511 5 1.7768 0. -1
</event>
<event>
 4 80 1 -1 -1 -1
 11 -1 0 0 0 0 0 0 5 5 0 0. 9.
 -11 -1 0 0 0 0 0 0 -5 5 0 0. 9.
 15 1 1 2 0 0 -3.4785 0.654238 -3.05193 5 1.7768 0. 1
 -15 1 1 2 0 0 3.4785 -0.654238 3.05193 5 1.7768 0. -1
</event>
<event>
 4 80 1 -1 -1 -1
 11 -1 0 0 0 0 0 0 5 5 0 0. 9.
 -11 -1 0 0 0 0 0 0 -4.97464 4.97464 0 0. 9.
 15 1 1 2 0 0 -0.709802 -4.19295 -1.89279 4.98247 1.7768 0. -1
 -15 1 1 2 0 0 0.709802 4.19295 1.91815 4.99216 1.7768 0. 1
</event>
<event>
 4 80 1 -1 -1 -1
 11 -1 0 0 0 0 0 0 4.34706 4.34706 0 0. 9.
 -11 -1 0 0 0 0 0 0 -4.99967 4.99967 0 0. 9.
 15 1 1 2 0 0 -1.36839 3.04521 -3.05884 4.86416 1.7768 0. -1
 -15 1 1 2 0 0 1.36839 -3.04521 2.40623 4.48257 1.7768 0. 1
</event>
<event>
 4 80 1 -1 -1 -1
 11 -1 0 0 0 0 0 0 5 5 0 0. 9.
 -11 -1 0 0 0 0 0 0 -4.7272 4.7272 0 0. 9.
 15 1 1 2 0 0 0.564252 -1.58574 4.33869 4.98145 1.7768 0. -1
 -15 1 1 2 0 0 -0.564252 1.58574 -4.06589 4.74575 1.7768 0. 1
</event>
<event>
 4 80 1 -1 -1 -1
 11 -1 0 0 0 0 0 0 4.81595 4.81595 0 0. 9.
 -11 -1 0 0 0 0 0 0 -5 5 0 0. 9.
 15 1 1 2 0 0 -3.68499 2.41795 1.13146 4.88504 1.7768 0. 1
 -15 1 1 2 0 0 3.68499 -2.41795 -1.31551 4.93092 1.7768 0. -1
</event>
<event>
 4 80 1 -1 -1 -1
 11 -1 0 0 0 0 0 0 5 5 0 0. 9.
 -11 -1 0 0 0 0 0 0 -4.94123 4.94123 0 0. 9.
 15 1 1 2 0 0 2.09778 -4.12831 0.35309 4.97253 1.7768 0. 1
 -15 1 1 2 0 0 -2.09778 4.12831 -0.294321 4.9687 1.7768 0. -1
</event>
<event>
 4 80 1 -1 -1 -1
 11 -1 0 0 0 0 0 0 5 5 0 0. 9.
 -11 -1 0 0 0 0 0 0 -4.9014 4.9014 0 0. 9.
 15 1 1 2 0 0 -2.26967 0.924285 -3.86798 4.91169 1.7768 0. -1
 -15 1 1 2 0 0 2.26967 -0.924285 3.96658 4.98971 1.7768 0. 1
</event>
<event>
 4 80 1 -1 -1 -1
 11 -1 0 0 0 0 0 0 5 5 0 0. 9.
 -11 -1 0 0 0 0 0 0 -5 5 0 0. 9.
 15 1 1 2 0 0 -2.46374 -3.72086 -1.38834 5 1.7768 0. 1
 -15 1 1 2 0 0 2.46374 3.72086 1.38834 5 1.7768 0. -1
</event>
<event>
 4 80 1 -1 -1 -1
 11 -1 0 0 0 0 0 0 4.99986 4.99986 0 0. 9.
 -11 -1 0 0 0 0 0 0 -5 5 0 0. 9.
 15 1 1 2 0 0 4.25937 1.71496 0.870689 4.99992 1.7768 0. -1
 -15 1 1 2 0 0 -4.25937 -1.71496 -0.870827 4.99994 1.7768 0. 1
</event>
<event>
 4 80 1 -1 -1 -1
 11 -1 0 0 0 0 0 0 5 5 0 0. 9.
 -11 -1 0 0 0 0 0 0 -5 5 0 0. 9.
 15 1 1 2 0 0 -2.06591 4.03901 -1.1228 5 1.7768 0. 1
 -15 1 1 2 0 0 2.06591 -4.03901 1.1228 5 1.7768 0. -1
</event>
<event>
 4 80 1 -1 -1 -1
 11 -1 0 0 0 0 0 0 4.99869 4.99869 0 0. 9.
 -11 -1 0 0 0 0 0 0 -5 5 0 0. 9.
 15 1 1 2 0 0 2.87112 1.60109 -3.32163 4.99978 1.7768 0. -1
 -15 1 1 2 0 0 -2.87112 -1.60109 3.32032 4.99891 1.7768 0. 1
</event>
<event>
 4 80 1 -1 -1 -1
 11 -1 0 0 0 0 0 0 5 5 0 0. 9.
 -11 -1 0 0 0 0 0 0 -5 5 0 0. 9.
 15 1 1 2 0 0 -2.6789 -1.01161 -3.69356 5 1.7768 0. -1
 -15 1 1 2 0 0 2.6789 1.01161 3.69356 5 1.7768 0. 1
</event>
<event>
 4 80 1 -1 -1 -1
 11 -1 0 0 0 0 0 0 4.93569 4.93569 0 0. 9.
 -11 -1 0 0 0 0 0 0 -4.99982 4.99982 0 0. 9.
 15 1 1 2 0 0 -3.51985 -0.0929792 -3.05237 4.98725 1.7768 0. -1
 -15 1 1 2 0 0 3.51985 0.0929792 2.98824 4.94826 1.7768 0. 1
</event>
<event>
 4 80 1 -1 -1 -1
 11 -1 0 0 0 0 0 0 5 5 0 0. 9.
 -11 -1 0 0 0 0 0 0 -5 5 0 0. 9.
 15 1 1 2 0 0 -3.05078 1.22699 3.32106 5 1.7768 0. 1
 -15 1 1 2 0 0 3.05078 -1.22699 -3.32106 5 1.7768 0. -1
</event>
<event>
 4 80 1 -1 -1 -1
 11 -1 0 0 0 0 0 0 5 5 0 0. 9.
 -11 -1 0 0 0 0 0 0 -4.9983 4.9983 0 0. 9.
 15 1 1 2 0 0 2.63072 -3.83724 0.435128 4.99922 1.7768 0. 1
 -15 1 1 2 0 0 -2.63072 3.83724 -0.433423 4.99907 1.7768 0. -1
</event>
<event>
 4 80 1 -1 -1 -1
 11 -1 0 0 0 0 0 0 5 5 0 0. 9.
 -11 -1 0 0 0 0 0 0 -5 5 0 0. 9.
 15 1 1 2 0 0 -4.55588 0.643872 0.819543 5 1.7768 0. -1
 -15 1 1 2 0 0 4.55588 -0.643872 -0.819545 5 1.7768 0. 1
</event>
<event>
 4 80 1 -1 -1 -1
 11 -1 0 0 0 0 0 0 5 5 0 0. 9.
 -11 -1 0 0 0 0 0 0 -5 5 0 0. 9.
 15 1 1 2 0 0 -3.03133 0.610385 3.50439 5 1.7768 0. 1
 -15 1 1 2 0 0 3.03133 -0.610385 -3.50438 5 1.7768 0. -1
</event>
<event>
 4 80 1 -1 -1 -1
 11 -1 0 0 0 0 0 0 5 5 0 0. 9.
 -11 -1 0 0 0 0 0 0 -5 5 0 0. 9.
 15 1 1 2 0 0 2.70845 2.3038 3.03299 5 1.7768 0. 1
 -15 1 1 2 0 0 -2.70845 -2.3038 -3.033 5 1.7768 0. -1
</event>
<event>
 4 80 1 -1 -1 -1
 11 -1 0 0 0 0 0 0 4.97025 4.97025 0 0. 9.
 -11 -1 0 0 0 0 0 0 -1.01308 1.01308 0 0. 9.
 15 1 1 2 0 0 -0.0750808 -1.2847 2.60597 3.40659 1.7768 0. -1
 -15 1 1 2 0 0 0.0750808 1.2847 1.3512 2.57674 1.7768 0. 1
</event>
<event>
 4 80 1 -1 -1 -1
 11 -1 0 0 0 0 0 0 4.7615 4.7615 0 0. 9.
 -11 -1 0 0 0 0 0 0 -4.83967 4.83967 0 0. 9.
 15 1 1 2 0 0 1.7685 1.50898 -3.84471 4.83157 1.7768 0. -1
 -15 1 1 2 0 0 -1.7685 -1.50898 3.76654 4.76961 1.7768 0. 1
</event>
<event>
 4 80 1 -1 -1 -1
 11 -1 0 0 0 0 0 0 4.99991 4.99991 0 0. 9.
 -11 -1 0 0 0 0 0 0 -5 5 0 0. 9.
 15 1 1 2 0 0 0.871291 4.27959 -1.66371 4.99997 1.7768 0. -1
 -15 1 1 2 0 0 -0.871291 -4.27959 1.66362 4.99994 1.7768 0. 1
</event>
<event>
 4 80 1 -1 -1 -1
 11 -1 0 0 0 0 0 0 5 5 0 0. 9.
 -11 -1 0 0 0 0 0 0 -4.83851 4.83851 0 0. 9.
 15 1 1 2 0 0 -0.994622 -2.32481 -3.74611 4.85644 1.7768 0. -1
 -15 1 1 2 0 0 0.994622 2.32481 3.90759 4.98207 1.7768 0. 1
</event>
<event>
 4 80 1 -1 -1 -1
 11 -1 0 0 0 0 0 0 5 5 0 0. 9.
 -11 -1 0 0 0 0 0 0 -3.36928 3.36928 0 0. 9.
 15 1 1 2 0 0 -1.65596 -3.27061 1.32473 4.28389 1.7768 0. 1
 -15 1 1 2 0 0 1.65596 3.27061 0.305997 4.08539 1.7768 0. -1
</event>
<event>
 4 80 1 -1 -1 -1
 11 -1 0 0 0 0 0 0 5 5 0 0. 9.
 -11 -1 0 0 0 0 0 0 -5 5 0 0. 9.
 15 1 1 2 0 0 -0.45359 -3.79918 -2.68379 5 1.7768 0. -1
 -15 1 1 2 0 0 0.45359 3.79918 2.68379 5 1.7768 0. 1
</event>
<event>
 4 80 1 -1 -1 -1
 11 -1 0 0 0 0 0 0 5 5 0 0. 9.
 -11 -1 0 0 0 0 0 0 -5 5 0 0. 9.
 15 1 1 2 0 0 3.71642 2.40733 1.49507 5 1.7768 0. 1
 -15 1 1 2 0 0 -3.71642 -2.40733 -1.49507 5 1.7768 0. -1
</event>
<event>
 4 80 1 -1 -1 -1
 11 -1 0 0 0 0 0 0 4.99813 4.99813 0 0. 9.
 -11 -1 0 0 0 0 0 0 -4.99997 4.99997 0 0. 9.
 15 1 1 2 0 0 3.12873 3.45309 -0.347212 4.99911 1.7768 0. 1
 -15 1 1 2 0 0 -3.12873 -3.45309 0.345373 4.99898 1.7768 0. -1
</event>
<event>
 4 80 1 -1 -1 -1
 11 -1 0 0 0 0 0 0 4.99995 4.99995 0 0. 9.
 -11 -1 0 0 0 0 0 0 -4.76561 4.76561 0 0. 9.
 15 1 1 2 0 0 0.415801 0.0756953 4.64522 4.99144 1.7768 0. 1
 -15 1 1 2 0 0 -0.415801 -0.0756953 -4.41088 4.77412 1.7768 0. -1
</event>
<event>
 4 80 1 -1 -1 -1
 11 -1 0 0 0 0 0 0 5 5 0 0. 9.
 -11 -1 0 0 0 0 0 0 -5 5 0 0. 9.
 15 1 1 2 0 0 3.55071 2.31214 -1.97198 5 1.7768 0. -1
 -15 1 1 2 0 0 -3.55071 -2.31214 1.97198 5 1.7768 0. 1
</event>
<event>
 4 80 1 -1 -1 -1
 11 -1 0 0 0 0 0 0 4.99999 4.99999 0 0. 9.
 -11 -1 0 0 0 0 0 0 -4.99974 4.99974 0 0. 9.
 15 1 1 2 0 0 -0.0171544 -3.50388 -3.09236 4.99979 1.7768 0. -1
 -15 1 1 2 0 0 0.0171544 3.50388 3.09261 4.99994 1.7768 0. 1
</event>
<event>
 4 80 1 -1 -1 -1
 11 -1 0 0 0 0 0 0 5 5 0 0. 9.
 -11 -1 0 0 0 0 0 0 -4.99984 4.99984 0 0. 9.
 15 1 1 2 0 0 4.16624 0.542109 -2.04689 4.99989 1.7768 0. 1
 -15 1 1 2 0 0 -4.16624 -0.542109 2.04705 4.99995 1.7768 0. -1
</event>
<event>
 4 80 1 -1 -1 -1
 11 -1 0 0 0 0 0 0 4.94674 4.94674 0 0. 9.
 -11 -1 0 0 0 0 0 0 -5 5 0 0. 9.
 15 1 1 2 0 0 -0.672427 3.00483 -3.50444 4.99199 1.7768 0. -1
 -15 1 1 2 0 0 0.672427 -3.00483 3.45118 4.95475 1.7768 0. 1
</event>
<event>
 4 80 1 -1 -1 -1
 11 -1 0 0 0 0 0 0 5 5 0 0. 9.
 -11 -1 0 0 0 0 0 0 -5 5 0 0. 9.
 15 1 1 2 0 0 -2.46835 -3.84738 0.973207 5 1.7768 0. -1
 -15 1 1 2 0 0 2.46835 3.84738 -0.973207 5 1.7768 0. 1
</event>
<event>
 4 80 1 -1 -1 -1
 11 -1 0 0 0 0 0 0 5 5 0 0. 9.
 -11 -1 0 0 0 0 0 0 -4.42637 4.42637 0 0. 9.
 15 1 1 2 0 0 2.33961 2.92634 -1.93922 4.57772 1.7768 0. -1
 -15 1 1 2 0 0 -2.33961 -2.92634 2.51285 4.84865 1.7768 0. 1
</event>
<event>
 4 80 1 -1 -1 -1
 11 -1 0 0 0 0 0 0 5 5 0 0. 9.
 -11 -1 0 0 0 0 0 0 -0.943341 0.943341 0 0. 9.
 15 1 1 2 0 0 0.26244 0.72243 0.681964 2.0527 1.7768 0. -1
 -15 1 1 2 0 0 -0.26244 -0.72243 3.37469 3.89064 1.7768 0. 1
</event>
<event>
 4 80 1 -1 -1 -1
 11 -1 0 0 0 0 0 0 5 5 0 0. 9.
 -11 -1 0 0 0 0 0 0 -2.10431 2.10431 0 0. 9.
 15 1 1 2 0 0 0.794456 -1.7289 -0.670976 2.68853 1.7768 0. -1
 -15 1 1 2 0 0 -0.794456 1.7289 3.56667 4.41578 1.7768 0. 1
</event>
<event>
 4 80 1 -1 -1 -1
 11 -1 0 0 0 0 0 0 5 5 0 0. 9.
 -11 -1 0 0 0 0 0 0 -1.45623 1.45623 0 0. 9.
 15 1 1 2 0 0 -1.90537 -0.494021 1.17501 2.90049 1.7768 0. 1
 -15 1 1 2 0 0 1.90537 0.494021 2.36877 3.55574 1.7768 0. -1
</event>
<event>
 4 80 1 -1 -1 -1
 11 -1 0 0 0 0 0 0 5 5 0 0. 9.
 -11 -1 0 0 0 0 0 0 -4.94696 4.94696 0 0. 9.
 15 1 1 2 0 0 3.90084 -1.17013 2.26068 4.98539 1.7768 0. 1
 -15 1 1 2 0 0 -3.90084 1.17013 -2.20764 4.96157 1.7768 0. -1
</event>
<event>
 4 80 1 -1 -1 -1
 11 -1 0 0 0 0 0 0 4.90005 4.90005 0 0. 9.
 -11 -1 0 0 0 0 0 0 -4.92721 4.92721 0 0. 9.
 15 1 1 2 0 0 4.1626 0.452725 -1.872 4.91877 1.7768 0. 1
 -15 1 1 2 0 0 -4.1626 -0.452725 1.84483 4.90849 1.7768 0. -1
</event>
<event>
 4 80 1 -1 -1 -1
 11 -1 0 0 0 0 0 0 4.99914 4.99914 0 0. 9.
 -11 -1 0 0 0 0 0 0 -5 5 0 0. 9.
 15 1 1 2 0 0 3.36706 0.683939 3.16708 4.9993 1.7768 0. 1
 -15 1 1 2 0 0 -3.36706 -0.683939 -3.16793 4.99984 1.7768 0. -1
</event>
<event>
 4 80 1 -1 -1 -1
 11 -1 0 0 0 0 0 0 3.54605 3.54605 0 0. 9.
 -11 -1 0 0 0 0 0 0 -4.99624 4.99624 0 0. 9.
 15 1 1 2 0 0 -2.16551 -3.14056 -0.807939 4.28521 1.7768 0. -1
 -15 1 1 2 0 0 2.16551 3.14056 -0.642243 4.25708 1.7768 0. 1
</event>
<event>
 4 80 1 -1 -1 -1
 11 -1 0 0 0 0 0 0 4.99905 4.99905 0 0. 9.
 -11 -1 0 0 0 0 0 0 -5 5 0 0. 9.
 15 1 1 2 0 0 0.388311 4.1988 -2.01462 4.99972 1.7768 0. -1
 -15 1 1 2 0 0 -0.388311 -4.1988 2.01367 4.99933 1.7768 0. 1
</event>
<event>
 4 80 1 -1 -1 -1
 11 -1 0 0 0 0 0 0 4.99893 4.99893 0 0. 9.
 -11 -1 0 0 0 0 0 0 -4.99996 4.99996 0 0. 9.
 15 1 1 2 0 0 -3.02792 -3.21152 -1.53497 4.99961 1.7768 0. -1
 -15 1 1 2 0 0 3.02792 3.21152 1.53394 4.99929 1.7768 0. 1
</event>
<event>
 4 80 1 -1 -1 -1
 11 -1 0 0 0 0 0 0 4.83807 4.83807 0 0. 9.
 -11 -1 0 0 0 0 0 0 -5 5 0 0. 9.
 15 1 1 2 0 0 -0.174028 4.54732 0.488492 4.90966 1.7768 0. 1
 -15 1 1 2 0 0 0.174028 -4.54732 -0.650419 4.92841 1.7768 0. -1
</event>
<event>
 4 80 1 -1 -1 -1
 11 -1 0 0 0 0 0 0 5 5 0 0. 9.
 -11 -1 0 0 0 0 0 0 -5 5 0 0. 9.
 15 1 1 2 0 0 2.80123 0.239303 -3.73338 5 1.7768 0. 1
 -15 1 1 2 0 0 -2.80123 -0.239303 3.73338 5 1.7768 0. -1
</event>
<event>
 4 80 1 -1 -1 -1
 11 -1 0 0 0 0 0 0 5 5 0 0. 9.
 -11 -1 0 0 0 0 0 0 -4.99898 4.99898 0 0. 9.
 15 1 1 2 0 0 3.66564 -0.800117 -2.78517 4.9992 1.7768 0. 1
 -15 1 1 2 0 0 -3.66564 0.800117 2.7862 4.99977 1.7768 0. -1
</event>
<event>
 4 80 1 -1 -1 -1
 11 -1 0 0 0 0 0 0 1.39927 1.39927 0 0. 9.
 -11 -1 0 0 0 0 0 0 -4.99454 4.99454 0 0. 9.
 15 1 1 2 0 0 1.33343 -1.08099 -0.660403 2.55743 1.7768 0. -1
 -15 1 1 2 0 0 -1.33343 1.08099 -2.93487 3.83637 1.7768 0. 1
</event>
<event>
 4 80 1 -1 -1 -1
 11 -1 0 0 0 0 0 0 5 5 0 0. 9.
 -11 -1 0 0 0 0 0 0 -5 5 0 0. 9.
 15 1 1 2 0 0 -3.99669 0.799476 -2.28683 5 1.7768 0. -1
 -15 1 1 2 0 0 3.99669 -0.799476 2.28683 5 1.7768 0. 1
</event>
<event>
 4 80 1 -1 -1 -1
 11 -1 0 0 0 0 0 0 5 5 0 0. 9.
 -11 -1 0 0 0 0 0 0 -1.336 1.336 0 0. 9.
 15 1 1 2 0 0 -0.962027 -0.938556 0.226395 2.2395 1.7768 0. -1
 -15 1 1 2 0 0 0.962027 0.938556 3.43761 4.09649 1.7768 0. 1
</event>
<event>
 4 80 1 -1 -1 -1
 11 -1 0 0 0 0 0 0 5 5 0 0. 9.
 -11 -1 0 0 0 0 0 0 -5 5 0 0. 9.
 15 1 1 2 0 0 -1.88331 4.27728 -0.0175036 5 1.7768 0. -1
 -15 1 1 2 0 0 1.88331 -4.27728 0.0175037 5 1.7768 0. 1
</event>
<event>
 4 80 1 -1 -1 -1
 11 -1 0 0 0 0 0 0 5 5 0 0. 9.
 -11 -1 0 0 0 0 0 0 -5 5 0 0. 9.
 15 1 1 2 0 0 -1.172 2.72638 -3.61047 5 1.7768 0. 1
 -15 1 1 2 0 0 1.172 -2.72638 3.61047 5 1.7768 0. -1
</event>
<event>
 4 80 1 -1 -1 -1
 11 -1 0 0 0 0 0 0 5 5 0 0. 9.
 -11 -1 0 0 0 0 0 0 -5 5 0 0. 9.
 15 1 1 2 0 0 1.35333 -3.6618 2.56944 5 1.7768 0. 1
 -15 1 1 2 0 0 -1.35333 3.6618 -2.56944 5 1.7768 0. -1
</event>
<event>
 4 80 1 -1 -1 -1
 11 -1 0 0 0 0 0 0 5 5 0 0. 9.
 -11 -1 0 0 0 0 0 0 -4.99891 4.99891 0 0. 9.
 15 1 1 2 0 0 -2.94681 3.40366 1.25284 4.99959 1.7768 0. -1
 -15 1 1 2 0 0 2.94681 -3.40366 -1.25175 4.99932 1.7768 0. 1
</event>
<event>
 4 80 1 -1 -1 -1
 11 -1 0 0 0 0 0 0 4.99987 4.99987 0 0. 9.
 -11 -1 0 0 0 0 0 0 -3.65149 3.65149 0 0. 9.
 15 1 1 2 0 0 -3.49246 -1.67106 0.339124 4.27346 1.7768 0. -1
 -15 1 1 2 0 0 3.49246 1.67106 1.00926 4.3779 1.7768 0. 1
</event>
<event>
 4 80 1 -1 -1 -1
 11 -1 0 0 0 0 0 0 5 5 0 0. 9.
 -11 -1 0 0 0 0 0 0 -5 5 0 0. 9.
 15 1 1 2 0 0 3.14349 -2.95882 1.79057 5 1.7768 0. -1
 -15 1 1 2 0 0 -3.14349 2.95882 -1.79057 5 1.7768 0. 1
</event>
<event>
 4 80 1 -1 -1 -1
 11 -1 0 0 0 0 0 0 5 5 0 0. 9.
 -11 -1 0 0 0 0 0 0 -4.46175 4.46175 0 0. 9.
 15 1 1 2 0 0 -1.7992 2.48293 3.39652 4.90878 1.7768 0. -1
 -15 1 1 2 0 0 1.7992 -2.48293 -2.85828 4.55297 1.7768 0. 1
</event>
<event>
 4 80 1 -1 -1 -1
 11 -1 0 0 0 0 0 0 3.79042 3.79042 0 0. 9.
 -11 -1 0 0 0 0 0 0 -5 5 0 0. 9.
 15 1 1 2 0 0 -3.38176 1.83945 0.391877 4.25807 1.7768 0. -1
 -15 1 1 2 0 0 3.38176 -1.83945 -1.60145 4.53235 1.7768 0. 1
</event>
<event>
 4 80 1 -1 -1 -1
 11 -1 0 0 0 0 0 0 5 5 0 0. 9.
 -11 -1 0 0 0 0 0 0 -0.819121 0.819121 0 0. 9.
 15 1 1 2 0 0 0.756668 -0.307545 1.34236 2.37208 1.7768 0. -1
 -15 1 1 2 0 0 -0.756668 0.307545 2.83852 3.44704 1.7768 0. 1
</event>
<event>
 4 80 1 -1 -1 -1
 11 -1 0 0 0 0 0 0 5 5 0 0. 9.
 -11 -1 0 0 0 0 0 0 -5 5 0 0. 9.
 15 1 1 2 0 0 -4.00082 -2.00997 -1.34005 5 1.7768 0. -1
 -15 1 1 2 0 0 4.00082 2.00997 1.34005 5 1.7768 0. 1
</event>
<event>
 4 80 1 -1 -1 -1
 11 -1 0 0 0 0 0 0 2.07594 2.07594 0 0. 9.
 -11 -1 0 0 0 0 0 0 -5 5 0 0. 9.
 15 1 1 2 0 0 -2.1414 0.353633 -3.20228 4.25711 1.7768 0. 1
 -15 1 1 2 0 0 2.1414 -0.353633 0.278218 2.81883 1.7768 0. -1
</event>
<event>
 4 80 1 -1 -1 -1
 11 -1 0 0 0 0 0 0 5 5 0 0. 9.
 -11 -1 0 0 0 0 0 0 -4.99921 4.99921 0 0. 9.
 15 1 1 2 0 0 -3.71697 -1.82075 -2.16924 4.99943 1.7768 0. -1
 -15 1 1 2 0 0 3.71697 1.82075 2.17003 4.99978 1.7768 0. 1
</event>
<event>
 4 80 1 -1 -1 -1
 11 -1 0 0 0 0 0 0 4.9894 4.9894 0 0. 9.
 -11 -1 0 0 0 0 0 0 -0.750286 0.750286 0 0. 9.
 15 1 1 2 0 0 -0.297302 -0.689044 2.34246 3.03447 1.7768 0. -1
 -15 1 1 2 0 0 0.297302 0.689044 1.89666 2.70522 1.7768 0. 1
</event>
<event>
 4 80 1 -1 -1 -1
 11 -1 0 0 0 0 0 0 5 5 0 0. 9.
 -11 -1 0 0 0 0 0 0 -5 5 0 0. 9.
 15 1 1 2 0 0 -3.41349 3.01997 1.03446 5 1.7768 0. 1
 -15 1 1 2 0 0 3.41349 -3.01997 -1.03446 5 1.7768 0. -1
</event>
<event>
 4 80 1 -1 -1 -1
 11 -1 0 0 0 0 0 0 5 5 0 0. 9.
 -11 -1 0 0 0 0 0 0 -5 5 0 0. 9.
 15 1 1 2 0 0 -3.67662 -2.57498 1.30161 5 1.7768 0. 1
 -15 1 1 2 0 0 3.67662 2.57498 -1.30161 5 1.7768 0. -1
</event>
<event>
 4 80 1 -1 -1 -1
 11 -1 0 0 0 0 0 0 4.99998 4.99998 0 0. 9.
 -11 -1 0 0 0 0 0 0 -5 5 0 0. 9.
 15 1 1 2 0 0 0.804951 4.57622 0.502424 4.99999 1.7768 0. -1
 -15 1 1 2 0 0 -0.804951 -4.57622 -0.50244 4.99999 1.7768 0. 1
</event>
<event>
 4 80 1 -1 -1 -1
 11 -1 0 0 0 0 0 0 5 5 0 0. 9.
 -11 -1 0 0 0 0 0 0 -5 5 0 0. 9.
 15 1 1 2 0 0 -4.40717 1.115 -1.08439 5 1.7768 0. -1
 -15 1 1 2 0 0 4.40717 -1.115 1.08439 5 1.7768 0. 1
</event>
<event>
 4 80 1 -1 -1 -1
 11 -1 0 0 0 0 0 0 5 5 0 0. 9.
 -11 -1 0 0 0 0 0 0 -4.01411 4.01411 0 0. 9.
 15 1 1 2 0 0 0.431465 3.00407 3.28498 4.81242 1.7768 0. 1
 -15 1 1 2 0 0 -0.431465 -3.00407 -2.29909 4.20168 1.7768 0. -1
</event>
<event>
 4 80 1 -1 -1 -1
 11 -1 0 0 0 0 0 0 5 5 0 0. 9.
 -11 -1 0 0 0 0 0 0 -4.95784 4.95784 0 0. 9.
 15 1 1 2 0 0 -0.00087724 -2.57701 3.89287 4.99531 1.7768 0. -1
 -15 1 1 2 0 0 0.00087724 2.57701 -3.85071 4.96253 1.7768 0. 1
</event>
<event>
 4 80 1 -1 -1 -1
 11 -1 0 0 0 0 0 0 4.91926 4.91926 0 0. 9.
 -11 -1 0 0 0 0 0 0 -5 5 0 0. 9.
 15 1 1 2 0 0 0.7817 -4.50268 0.703572 4.95358 1.7768 0. 1
 -15 1 1 2 0 0 -0.7817 4.50268 -0.784307 4.96569 1.7768 0. -1
</event>
<event>
 4 80 1 -1 -1 -1
 11 -1 0 0 0 0 0 0 4.99997 4.99997 0 0. 9.
 -11 -1 0 0 0 0 0 0 -5 5 0 0. 9.
 15 1 1 2 0 0 1.76031 -1.20899 4.15711 4.99997 1.7768 0. 1
 -15 1 1 2 0 0 -1.76031 1.20899 -4.15715 5 1.7768 0. -1
</event>
<event>
 4 80 1 -1 -1 -1
 11 -1 0 0 0 0 0 0 4.99992 4.99992 0 0. 9.
 -11 -1 0 0 0 0 0 0 -5 5 0 0. 9.
 15 1 1 2 0 0 -1.41387 3.79337 -2.33524 4.99998 1.7768 0. 1
 -15 1 1 2 0 0 1.41387 -3.79337 2.33516 4.99994 1.7768 0. -1
</event>
<event>
 4 80 1 -1 -1 -1
 11 -1 0 0 0 0 0 0 5 5 0 0. 9.
 -11 -1 0 0 0 0 0 0 -5 5 0 0. 9.
 15 1 1 2 0 0 -3.92143 -0.230644 -2.53208 5 1.7768 0. -1
 -15 1 1 2 0 0 3.92143 0.230644 2.53208 5 1.7768 0. 1
</event>
<event>
 4 80 1 -1 -1 -1
 11 -1 0 0 0 0 0 0 3.64193 3.64193 0 0. 9.
 -11 -1 0 0 0 0 0 0 -5 5 0 0. 9.
 15 1 1 2 0 0 -1.82434 3.38187 -1.22119 4.40616 1.7768 0. -1
 -15 1 1 2 0 0 1.82434 -3.38187 -0.136884 4.23577 1.7768 0. 1
</event>
<event>
 4 80 1 -1 -1 -1
 11 -1 0 0 0 0 0 0 4.99979 4.99979 0 0. 9.
 -11 -1 0 0 0 0 0 0 -4.99999 4.99999 0 0. 9.
 15 1 1 2 0 0 -3.8062 -0.798359 -2.59175 4.99994 1.7768 0. 1
 -15 1 1 2 0 0 3.8062 0.798359 2.59155 4.99984 1.7768 0. -1
</event>
<event>
 4 80 1 -1 -1 -1
 11 -1 0 0 0 0 0 0 5 5 0 0. 9.
 -11 -1 0 0 0 0 0 0 -3.55155 3.55155 0 0. 9.
 15 1 1 2 0 0 3.06535 -0.505539 2.98127 4.65807 1.7768 0. -1
 -15 1 1 2 0 0 -3.06535 0.505539 -1.53282 3.89348 1.7768 0. 1
</event>
<event>
 4 80 1 -1 -1 -1
 11 -1 0 0 0 0 0 0 5 5 0 0. 9.
 -11 -1 0 0 0 0 0 0 -5 5 0 0. 9.
 15 1 1 2 0 0 0.827393 -3.80276 -2.5878 5 1.7768 0. -1
 -15 1 1 2 0 0 -0.827393 3.80276 2.5878 5 1.7768 0. 1
</event>
<event>
 4 80 1 -1 -1 -1
 11 -1 0 0 0 0 0 0 4.9166 4.9166 0 0. 9.
 -11 -1 0 0 0 0 0 0 -5 5 0 0. 9.
 15 1 1 2 0 0 -0.0131225 -4.59819 0.489149 4.95384 1.7768 0. 1
 -15 1 1 2 0 0 0.0131225 4.59819 -0.572544 4.96277 1.7768 0. -1
</event>
<event>
 4 80 1 -1 -1 -1
 11 -1 0 0 0 0 0 0 5 5 0 0. 9.
 -11 -1 0 0 0 0 0 0 -4.99753 4.99753 0 0. 9.
 15 1 1 2 0 0 -4.45807 -0.931848 -1.04144 4.99851 1.7768 0. 1
 -15 1 1 2 0 0 4.45807 0.931848 1.04391 4.99902 1.7768 0. -1
</event>
<event>
 4 80 1 -1 -1 -1
 11 -1 0 0 0 0 0 0 4.99773 4.99773 0 0. 9.
 -11 -1 0 0 0 0 0 0 -5 5 0 0. 9.
 15 1 1 2 0 0 3.26062 1.85763 -2.78475 4.9995 1.7768 0. 1
 -15 1 1 2 0 0 -3.26062 -1.85763 2.78248 4.99823 1.7768 0. -1
</event>
<event>
 4 80 1 -1 -1 -1
 11 -1 0 0 0 0 0 0 4.94045 4.94045 0 0. 9.
 -11 -1 0 0 0 0 0 0 -5 5 0 0. 9.
 15 1 1 2 0 0 1.0312 -2.12285 -4.02668 4.99417 1.7768 0. -1
 -15 1 1 2 0 0 -1.0312 2.12285 3.96712 4.94628 1.7768 0. 1
</event>
<event>
 4 80 1 -1 -1 -1
 11 -1 0 0 0 0 0 0 4.99078 4.99078 0 0. 9.
 -11 -1 0 0 0 0 0 0 -4.77607 4.77607 0 0. 9.
 15 1 1 2 0 0 -1.24064 2.22011 -3.66324 4.80053 1.7768 0. -1
 -15 1 1 2 0 0 1.24064 -2.22011 3.87795 4.96632 1.7768 0. 1
</event>
<event>
 4 80 1 -1 -1 -1
 11 -1 0 0 0 0 0 0 4.99979 4.99979 0 0. 9.
 -11 -1 0 0 0 0 0 0 -4.9905 4.9905 0 0. 9.
 15 1 1 2 0 0 2.07608 3.57798 2.16836 4.99716 1.7768 0. 1
 -15 1 1 2 0 0 -2.07608 -3.57798 -2.15907 4.99313 1.7768 0. -1
</event>
<event>
 4 80 1 -1 -1 -1
 11 -1 0 0 0 0 0 0 4.99999 4.99999 0 0. 9.
 -11 -1 0 0 0 0 0 0 -4.63998 4.63998 0 0. 9.
 15 1 1 2 0 0 1.56642 -3.12841 2.97508 4.92437 1.7768 0. 1
 -15 1 1 2 0 0 -1.56642 3.12841 -2.61507 4.7156 1.7768 0. -1
</event>
<event>
 4 80 1 -1 -1 -1
 11 -1 0 0 0 0 0 0 5 5 0 0. 9.
 -11 -1 0 0 0 0 0 0 -5 5 0 0. 9.
 15 1 1 2 0 0 1.26912 4.12849 -1.78528 5 1.7768 0. -1
 -15 1 1 2 0 0 -1.26912 -4.12849 1.78528 5 1.7768 0. 1
</event>
<event>
 4 80 1 -1 -1 -1
 11 -1 0 0 0 0 0 0 5 5 0 0. 9.
 -11 -1 0 0 0 0 0 0 -5 5 0 0. 9.
 15 1 1 2 0 0 -0.742039 1.15033 4.4686 5 1.7768 0. 1
 -15 1 1 2 0 0 0.742039 -1.15033 -4.4686 5 1.7768 0. -1
</event>
<event>
 4 80 1 -1 -1 -1
 11 -1 0 0 0 0 0 0 4.98534 4.98534 0 0. 9.
 -11 -1 0 0 0 0 0 0 -1.40711 1.40711 0 0. 9.
 15 1 1 2 0 0 1.38289 1.38401 1.99585 3.31195 1.7768 0. 1
 -15 1 1 2 0 0 -1.38289 -1.38401 1.58238 3.08051 1.7768 0. -1
</event>
<event>
 4 80 1 -1 -1 -1
 11 -1 0 0 0 0 0 0 4.99985 4.99985 0 0. 9.
 -11 -1 0 0 0 0 0 0 -5 5 0 0. 9.
 15 1 1 2 0 0 -0.680243 -3.46435 -3.06227 4.99997 1.7768 0. 1
 -15 1 1 2 0 0 0.680243 3.46435 3.06213 4.99988 1.7768 0. -1
</event>
<event>
 4 80 1 -1 -1 -1
 11 -1 0 0 0 0 0 0 4.99999 4.99999 0 0. 9.
 -11 -1 0 0 0 0 0 0 -4.99999 4.99999 0 0. 9.
 15 1 1 2 0 0 3.40306 -0.988878 -3.04688 4.99999 1.7768 0. -1
 -15 1 1 2 0 0 -3.40306 0.988878 3.04688 4.99999 1.7768 0. 1
</event>
<event>
 4 80 1 -1 -1 -1
 11 -1 0 0 0 0 0 0 5 5 0 0. 9.
 -11 -1 0 0 0 0 0 0 -4.99984 4.99984 0 0. 9.
 15 1 1 2 0 0 -1.27907 -2.54962 -3.70193 4.99986 1.7768 0. -1
 -15 1 1 2 0 0 1.27907 2.54962 3.70209 4.99998 1.7768 0. 1
</event>
<event>
 4 80 1 -1 -1 -1
 11 -1 0 0 0 0 0 0 5 5 0 0. 9.
 -11 -1 0 0 0 0 0 0 -4.99998 4.99998 0 0. 9.
 15 1 1 2 0 0 -0.412815 -0.950218 -4.55727 4.99998 1.7768 0. -1
 -15 1 1 2 0 0 0.412815 0.950218 4.55729 5 1.7768 0. 1
</event>
<event>
 4 80 1 -1 -1 -1
 11 -1 0 0 0 0 0 0 5 5 0 0. 9.
 -11 -1 0 0 0 0 0 0 -5 5 0 0. 9.
 15 1 1 2 0 0 2.99689 -0.884282 3.47548 5 1.7768 0. 1
 -15 1 1 2 0 0 -2.99689 0.884282 -3.47548 5 1.7768 0. -1
</event>
<event>
 4 80 1 -1 -1 -1
 11 -1 0 0 0 0 0 0 1.12408 1.12408 0 0. 9.
 -11 -1 0 0 0 0 0 0 -5 5 0 0. 9.
 15 1 1 2 0 0 0.470601 0.35766 -3.81557 4.25037 1.7768 0. 1
 -15 1 1 2 0 0 -0.470601 -0.35766 -0.0603548 1.8737 1.7768 0. -1
</event>
<event>
 4 80 1 -1 -1 -1
 11 -1 0 0 0 0 0 0 4.99539 4.99539 0 0. 9.
 -11 -1 0 0 0 0 0 0 -4.89338 4.89338 0 0. 9.
 15 1 1 2 0 0 4.19094 -1.91396 -0.192869 4.94187 1.7768 0. 1
 -15 1 1 2 0 0 -4.19094 1.91396 0.294878 4.9469 1.7768 0. -1
</event>
<event>
 4 80 1 -1 -1 -1
 11 -1 0 0 0 0 0 0 1.80033 1.80033 0 0. 9.
 -11 -1 0 0 0 0 0 0 -4.99999 4.99999 0 0. 9.
 15 1 1 2 0 0 0.161238 -2.295 -2.441 3.79595 1.7768 0. 1
 -15 1 1 2 0 0 -0.161238 2.295 -0.758657 3.00438 1.7768 0. -1
</event>
<event>
 4 80 1 -1 -1 -1
 11 -1 0 0 0 0 0 0 5 5 0 0. 9.
 -11 -1 0 0 0 0 0 0 -5 5 0 0. 9.
 15 1 1 2 0 0 -4.24998 -1.04176 -1.64154 5 1.7768 0. -1
 -15 1 1 2 0 0 4.24998 1.04176 1.64154 5 1.7768 0. 1
</event>
<event>
 4 80 1 -1 -1 -1
 11 -1 0 0 0 0 0 0 5 5 0 0. 9.
 -11 -1 0 0 0 0 0 0 -4.99978 4.99978 0 0. 9.
 15 1 1 2 0 0 2.79164 2.81964 -2.46922 4.99984 1.7768 0. 1
 -15 1 1 2 0 0 -2.79164 -2.81964 2.46944 4.99995 1.7768 0. -1
</event>
<event>
 4 80 1 -1 -1 -1
 11 -1 0 0 0 0 0 0 5 5 0 0. 9.
 -11 -1 0 0 0 0 0 0 -4.91843 4.91843 0 0. 9.
 15 1 1 2 0 0 2.12444 -2.65766 -3.09907 4.93339 1.7768 0. -1
 -15 1 1 2 0 0 -2.12444 2.65766 3.18064 4.98503 1.7768 0. 1
</event>
<event>
 4 80 1 -1 -1 -1
 11 -1 0 0 0 0 0 0 5 5 0 0. 9.
 -11 -1 0 0 0 0 0 0 -5 5 0 0. 9.
 15 1 1 2 0 0 0.500938 -3.06476 3.49265 5 1.7768 0. 1
 -15 1 1 2 0 0 -0.500938 3.06476 -3.49265 5 1.7768 0. -1
</event>
<event>
 4 80 1 -1 -1 -1
 11 -1 0 0 0 0 0 0 5 5 0 0. 9.
 -11 -1 0 0 0 0 0 0 -5 5 0 0. 9.
 15 1 1 2 0 0 0.396304 4.04719 2.30337 5 1.7768 0. -1
 -15 1 1 2 0 0 -0.396304 -4.04719 -2.30337 5 1.7768 0. 1
</event>
<event>
 4 80 1 -1 -1 -1
 11 -1 0 0 0 0 0 0 5 5 0 0. 9.
 -11 -1 0 0 0 0 0 0 -4.99998 4.99998 0 0. 9.
 15 1 1 2 0 0 2.20743 -1.58682 -3.8015 4.99999 1.7768 0. 1
 -15 1 1 2 0 0 -2.20743 1.58682 3.80151 5 1.7768 0. -1
</event>
<event>
 4 80 1 -1 -1 -1
 11 -1 0 0 0 0 0 0 5 5 0 0. 9.
 -11 -1 0 0 0 0 0 0 -5 5 0 0. 9.
 15 1 1 2 0 0 0.542037 0.41894 -4.62309 5 1.7768 0. 1
 -15 1 1 2 0 0 -0.542037 -0.41894 4.62309 5 1.7768 0. -1
</event>
<event>
 4 80 1 -1 -1 -1
 11 -1 0 0 0 0 0 0 4.56032 4.56032 0 0. 9.
 -11 -1 0 0 0 0 0 0 -4.98872 4.98872 0 0. 9.
 15 1 1 2 0 0 1.76596 -2.48924 2.99489 4.63055 1.7768 0. -1
 -15 1 1 2 0 0 -1.76596 2.48924 -3.42328 4.91849 1.7768 0. 1
</event>
<event>
 4 80 1 -1 -1 -1
 11 -1 0 0 0 0 0 0 5 5 0 0. 9.
 -11 -1 0 0 0 0 0 0 -5 5 0 0. 9.
 15 1 1 2 0 0 4.41262 -1.43995 -0.545546 5 1.7768 0. 1
 -15 1 1 2 0 0 -4.41262 1.43995 0.545546 5 1.7768 0. -1
</event>
<event>
 4 80 1 -1 -1 -1
 11 -1 0 0 0 0 0 0 5 5 0 0. 9.
 -11 -1 0 0 0 0 0 0 -5 5 0 0. 9.
 15 1 1 2 0 0 -3.245 2.26507 -2.4863 5 1.7768 0. 1
 -15 1 1 2 0 0 3.245 -2.26507 2.4863 5 1.7768 0. -1
</event>
<event>
 4 80 1 -1 -1 -1
 11 -1 0 0 0 0 0 0 5 5 0 0. 9.
 -11 -1 0 0 0 0 0 0 -5 5 0 0. 9.
 15 1 1 2 0 0 3.75433 -2.00004 1.93574 5 1.7768 0. 1
 -15 1 1 2 0 0 -3.75433 2.00004 -1.93574 5 1.7768 0. -1
</event>
<event>
 4 80 1 -1 -1 -1
 11 -1 0 0 0 0 0 0 5 5 0 0. 9.
 -11 -1 0 0 0 0 0 0 -2.92199 2.92199 0 0. 9.
 15 1 1 2 0 0 -0.600149 -2.44835 -1.30071 3.34727 1.7768 0. -1
 -15 1 1 2 0 0 0.600149 2.44835 3.37872 4.57472 1.7768 0. 1
</event>
<event>
 4 80 1 -1 -1 -1
 11 -1 0 0 0 0 0 0 4.99935 4.99935 0 0. 9.
 -11 -1 0 0 0 0 0 0 -4.99984 4.99984 0 0. 9.
 15 1 1 2 0 0 2.69666 1.42331 -3.54149 4.99976 1.7768 0. -1
 -15 1 1 2 0 0 -2.69666 -1.42331 3.541 4.99942 1.7768 0. 1
</event>
<event>
 4 80 1 -1 -1 -1
 11 -1 0 0 0 0 0 0 4.99253 4.99253 0 0. 9.
 -11 -1 0 0 0 0 0 0 -5 5 0 0. 9.
 15 1 1 2 0 0 -2.61587 0.650108 3.80934 4.99342 1.7768 0. -1
 -15 1 1 2 0 0 2.61587 -0.650108 -3.81681 4.99912 1.7768 0. 1
</event>
<event>
 4 80 1 -1 -1 -1
 11 -1 0 0 0 0 0 0 5 5 0 0. 9.
 -11 -1 0 0 0 0 0 0 -5 5 0 0. 9.
 15 1 1 2 0 0 2.724 -3.38495 1.72168 5 1.7768 0. 1
 -15 1 1 2 0 0 -2.724 3.38495 -1.72167 5 1.7768 0. -1
</event>
<event>
 4 80 1 -1 -1 -1
 11 -1 0 0 0 0 0 0 5 5 0 0. 9.
 -11 -1 0 0 0 0 0 0 -4.28986 4.28986 0 0. 9.
 15 1 1 2 0 0 1.58476 0.892812 -3.52708 4.34817 1.7768 0. 1
 -15 1 1 2 0 0 -1.58476 -0.892812 4.23722 4.94169 1.7768 0. -1
</event>
<event>
 4 80 1 -1 -1 -1
 11 -1 0 0 0 0 0 0 5 5 0 0. 9.
 -11 -1 0 0 0 0 0 0 -5 5 0 0. 9.
 15 1 1 2 0 0 -2.99564 -2.87787 -2.14156 5 1.7768 0. 1
 -15 1 1 2 0 0 2.99564 2.87787 2.14156 5 1.7768 0. -1
</event>
<event>
 4 80 1 -1 -1 -1
 11 -1 0 0 0 0 0 0 5 5 0 0. 9.
 -11 -1 0 0 0 0 0 0 -4.99999 4.99999 0 0. 9.
 15 1 1 2 0 0 -3.9193 0.335852 -2.52359 4.99999 1.7768 0. -1
 -15 1 1 2 0 0 3.9193 -0.335852 2.5236 5 1.7768 0. 1
</event>
<event>
 4 80 1 -1 -1 -1
 11 -1 0 0 0 0 0 0 5 5 0 0. 9.
 -11 -1 0 0 0 0 0 0 -4.73604 4.73604 0 0. 9.
 15 1 1 2 0 0 -2.75729 -0.775508 3.64303 4.96321 1.7768 0. 1
 -15 1 1 2 0 0 2.75729 0.775508 -3.37908 4.77283 1.7768 0. -1
</event>
<event>
 4 80 1 -1 -1 -1
 11 -1 0 0 0 0 0 0 4.99997 4.99997 0 0. 9.
 -11 -1 0 0 0 0 0 0 -5 5 0 0. 9.
 15 1 1 2 0 0 0.254358 -1.87436 4.27364 4.99997 1.7768 0. 1
 -15 1 1 2 0 0 -0.254358 1.87436 -4.27368 5 1.7768 0. -1
</event>
<event>
 4 80 1 -1 -1 -1
 11 -1 0 0 0 0 0 0 5 5 0 0. 9.
 -11 -1 0 0 0 0 0 0 -5 5 0 0. 9.
 15 1 1 2 0 0 0.628636 -2.41488 -3.95163 5 1.7768 0. 1
 -15 1 1 2 0 0 -0.628636 2.41488 3.95164 5 1.7768 0. -1
</event>
<event>
 4 80 1 -1 -1 -1
 11 -1 0 0 0 0 0 0 2.23781 2.23781 0 0. 9.
 -11 -1 0 0 0 0 0 0 -5 5 0 0. 9.
 15 1 1 2 0 0 -2.56733 -0.905701 -0.529332 3.29385 1.7768 0. 1
 -15 1 1 2 0 0 2.56733 0.905701 -2.23286 3.94397 1.7768 0. -1
</event>
<event>
 4 80 1 -1 -1 -1
 11 -1 0 0 0 0 0 0 4.94334 4.94334 0 0. 9.
 -11 -1 0 0 0 0 0 0 -4.99529 4.99529 0 0. 9.
 15 1 1 2 0 0 -0.775924 0.681015 -4.5504 4.99296 1.7768 0. 1
 -15 1 1 2 0 0 0.775924 -0.681015 4.49845 4.94567 1.7768 0. -1
</event>
<event>
 4 80 1 -1 -1 -1
 11 -1 0 0 0 0 0 0 4.86904 4.86904 0 0. 9.
 -11 -1 0 0 0 0 0 0 -4.99306 4.99306 0 0. 9.
 15 1 1 2 0 0 -3.71838 0.317858 2.62637 4.89724 1.7768 0. 1
 -15 1 1 2 0 0 3.71838 -0.317858 -2.75039 4.96485 1.7768 0. -1
</event>
<event>
 4 80 1 -1 -1 -1
 11 -1 0 0 0 0 0 0 5 5 0 0. 9.
 -11 -1 0 0 0 0 0 0 -5 5 0 0. 9.
 15 1 1 2 0 0 -2.06128 -0.222174 -4.18856 5 1.7768 0. 1
 -15 1 1 2 0 0 2.06128 0.222174 4.18856 5 1.7768 0. -1
</event>
<event>
 4 80 1 -1 -1 -1
 11 -1 0 0 0 0 0 0 5 5 0 0. 9.
 -11 -1 0 0 0 0 0 0 -5 5 0 0. 9.
 15 1 1 2 0 0 1.9952 -3.51942 2.33989 5 1.7768 0. -1
 -15 1 1 2 0 0 -1.9952 3.51942 -2.33989 5 1.7768 0. 1
</event>
<event>
 4 80 1 -1 -1 -1
 11 -1 0 0 0 0 0 0 2.32563 2.32563 0 0. 9.
 -11 -1 0 0 0 0 0 0 -5 5 0 0. 9.
 15 1 1 2 0 0 1.64042 -0.387891 -3.88562 4.59317 1.7768 0. 1
 -15 1 1 2 0 0 -1.64042 0.387891 1.21125 2.73245 1.7768 0. -1
</event>
<event>
 4 80 1 -1 -1 -1
 11 -1 0 0 0 0 0 0 5 5 0 0. 9.
 -11 -1 0 0 0 0 0 0 -4.98057 4.98057 0 0. 9.
 15 1 1 2 0 0 0.199449 -2.15895 4.13819 4.99832 1.7768 0. 1
 -15 1 1 2 0 0 -0.199449 2.15895 -4.11876 4.98224 1.7768 0. -1
</event>
<event>
 4 80 1 -1 -1 -1
 11 -1 0 0 0 0 0 0 4.99463 4.99463 0 0. 9.
 -11 -1 0 0 0 0 0 0 -4.98816 4.98816 0 0. 9.
 15 1 1 2 0 0 -0.27862 -4.12389 2.16477 4.9928 1.7768 0. -1
 -15 1 1 2 0 0 0.27862 4.12389 -2.15829 4.98999 1.7768 0. 1
</event>
<event>
 4 80 1 -1 -1 -1
 11 -1 0 0 0 0 0 0 5 5 0 0. 9.
 -11 -1 0 0 0 0 0 0 -5 5 0 0. 9.
 15 1 1 2 0 0 2.89707 1.87771 -3.15015 5 1.7768 0. -1
 -15 1 1 2 0 0 -2.89707 -1.87771 3.15015 5 1.7768 0. 1
</event>
<event>
 4 80 1 -1 -1 -1
 11 -1 0 0 0 0 0 0 5 5 0 0. 9.
 -11 -1 0 0 0 0 0 0 -5 5 0 0. 9.
 15 1 1 2 0 0 -1.47437 -1.64058 -4.12031 5 1.7768 0. 1
 -15 1 1 2 0 0 1.47437 1.64058 4.12031 5 1.7768 0. -1
</event>
<event>
 4 80 1 -1 -1 -1
 11 -1 0 0 0 0 0 0 4.99974 4.99974 0 0. 9.
 -11 -1 0 0 0 0 0 0 -5 5 0 0. 9.
 15 1 1 2 0 0 1.34615 3.46308 -2.8349 4.99994 1.7768 0. 1
 -15 1 1 2 0 0 -1.34615 -3.46308 2.83464 4.9998 1.7768 0. -1
</event>
<event>
 4 80 1 -1 -1 -1
 11 -1 0 0 0 0 0 0 5 5 0 0. 9.
 -11 -1 0 0 0 0 0 0 -5 5 0 0. 9.
 15 1 1 2 0 0 0.132453 2.54925 -3.91485 5 1.7768 0. 1
 -15 1 1 2 0 0 -0.132453 -2.54925 3.91485 5 1.7768 0. -1
</event>
<event>
 4 80 1 -1 -1 -1
 11 -1 0 0 0 0 0 0 5 5 0 0. 9.
 -11 -1 0 0 0 0 0 0 -5 5 0 0. 9.
 15 1 1 2 0 0 1.95202 -3.12878 -2.871 5 1.7768 0. 1
 -15 1 1 2 0 0 -1.95202 3.12878 2.871 5 1.7768 0. -1
</event>
<event>
 4 80 1 -1 -1 -1
 11 -1 0 0 0 0 0 0 4.98692 4.98692 0 0. 9.
 -11 -1 0 0 0 0 0 0 -5 5 0 0. 9.
 15 1 1 2 0 0 2.2837 4.04554 -0.448328 4.99404 1.7768 0. 1
 -15 1 1 2 0 0 -2.2837 -4.04554 0.435251 4.99288 1.7768 0. -1
</event>
<event>
 4 80 1 -1 -1 -1
 11 -1 0 0 0 0 0 0 5 5 0 0. 9.
 -11 -1 0 0 0 0 0 0 -5 5 0 0. 9.
 15 1 1 2 0 0 -1.31032 -3.99488 -2.04114 5 1.7768 0. 1
 -15 1 1 2 0 0 1.31032 3.99488 2.04114 5 1.7768 0. -1
</event>
<event>
 4 80 1 -1 -1 -1
 11 -1 0 0 0 0 0 0 5 5 0 0. 9.
 -11 -1 0 0 0 0 0 0 -4.08031 4.08031 0 0. 9.
 15 1 1 2 0 0 -3.66553 -0.262275 -1.48378 4.3433 1.7768 0. 1
 -15 1 1 2 0 0 3.66553 0.262275 2.40347 4.73701 1.7768 0. -1
</event>
<event>
 4 80 1 -1 -1 -1
 11 -1 0 0 0 0 0 0 5 5 0 0. 9.
 -11 -1 0 0 0 0 0 0 -4.99996 4.99996 0 0. 9.
 15 1 1 2 0 0 -2.75122 -0.181341 -3.77356 4.99996 1.7768 0. -1
 -15 1 1 2 0 0 2.75122 0.181341 3.77361 4.99999 1.7768 0. 1
</event>
<event>
 4 80 1 -1 -1 -1
 11 -1 0 0 0 0 0 0 5 5 0 0. 9.
 -11 -1 0 0 0 0 0 0 -5 5 0 0. 9.
 15 1 1 2 0 0 3.30322 0.197993 -3.30028 5 1.7768 0. -1
 -15 1 1 2 0 0 -3.30322 -0.197993 3.30028 5 1.7768 0. 1
</event>
<event>
 4 80 1 -1 -1 -1
 11 -1 0 0 0 0 0 0 4.25532 4.25532 0 0. 9.
 -11 -1 0 0 0 0 0 0 -5 5 0 0. 9.
 15 1 1 2 0 0 0.821248 0.023476 3.81784 4.29052 1.7768 0. -1
 -15 1 1 2 0 0 -0.821248 -0.023476 -4.56251 4.9648 1.7768 0. 1
</event>
<event>
 4 80 1 -1 -1 -1
 11 -1 0 0 0 0 0 0 4.99999 4.99999 0 0. 9.
 -11 -1 0 0 0 0 0 0 -4.97577 4.97577 0 0. 9.
 15 1 1 2 0 0 -2.44872 -1.59607 -3.61797 4.97907 1.7768 0. -1
 -15 1 1 2 0 0 2.44872 1.59607 3.64219 4.99669 1.7768 0. 1
</event>
<event>
 4 80 1 -1 -1 -1
 11 -1 0 0 0 0 0 0 5 5 0 0. 9.
 -11 -1 0 0 0 0 0 0 -4.95313 4.95313 0 0. 9.
 15 1 1 2 0 0 -4.04741 -0.473477 -2.21316 4.96603 1.7768 0. -1
 -15 1 1 2 0 0 4.04741 0.473477 2.26003 4.9871 1.7768 0. 1
</event>
<event>
 4 80 1 -1 -1 -1
 11 -1 0 0 0 0 0 0 5 5 0 0. 9.
 -11 -1 0 0 0 0 0 0 -5 5 0 0. 9.
 15 1 1 2 0 0 -2.84483 -2.76272 -2.47318 5 1.7768 0. -1
 -15 1 1 2 0 0 2.84483 2.76272 2.47318 5 1.7768 0. 1
</event>
<event>
 4 80 1 -1 -1 -1
 11 -1 0 0 0 0 0 0 5 5 0 0. 9.
 -11 -1 0 0 0 0 0 0 -5 5 0 0. 9.
 15 1 1 2 0 0 -4.28304 0.951497 -1.61013 5 1.7768 0. 1
 -15 1 1 2 0 0 4.28304 -0.951497 1.61013 5 1.7768 0. -1
</event>
<event>
 4 80 1 -1 -1 -1
 11 -1 0 0 0 0 0 0 5 5 0 0. 9.
 -11 -1 0 0 0 0 0 0 -5 5 0 0. 9.
 15 1 1 2 0 0 -0.858441 -0.551722 -4.56081 5 1.7768 0. 1
 -15 1 1 2 0 0 0.858441 0.551722 4.56081 5 1.7768 0. -1
</event>
<event>
 4 80 1 -1 -1 -1
 11 -1 0 0 0 0 0 0 5 5 0 0. 9.
 -11 -1 0 0 0 0 0 0 -4.99835 4.99835 0 0. 9.
 15 1 1 2 0 0 0.455705 -0.821627 -4.57643 4.99842 1.7768 0. 1
 -15 1 1 2 0 0 -0.455705 0.821627 4.57808 4.99993 1.7768 0. -1
</event>
<event>
 4 80 1 -1 -1 -1
 11 -1 0 0 0 0 0 0 3.50253 3.50253 0 0. 9.
 -11 -1 0 0 0 0 0 0 -4.99942 4.99942 0 0. 9.
 15 1 1 2 0 0 1.73811 2.77814 -2.67961 4.59099 1.7768 0. -1
 -15 1 1 2 0 0 -1.73811 -2.77814 1.18272 3.91097 1.7768 0. 1
</event>
<event>
 4 80 1 -1 -1 -1
 11 -1 0 0 0 0 0 0 5 5 0 0. 9.
 -11 -1 0 0 0 0 0 0 -5 5 0 0. 9.
 15 1 1 2 0 0 -1.95977 -3.8764 1.72485 5 1.7768 0. -1
 -15 1 1 2 0 0 1.95977 3.8764 -1.72485 5 1.7768 0. 1
</event>
<event>
 4 80 1 -1 -1 -1
 11 -1 0 0 0 0 0 0 5 5 0 0. 9.
 -11 -1 0 0 0 0 0 0 -5 5 0 0. 9.
 15 1 1 2 0 0 2.92268 1.96727 -3.07084 5 1.7768 0. 1
 -15 1 1 2 0 0 -2.92268 -1.96727 3.07084 5 1.7768 0. -1
</event>
<event>
 4 80 1 -1 -1 -1
 11 -1 0 0 0 0 0 0 5 5 0 0. 9.
 -11 -1 0 0 0 0 0 0 -5 5 0 0. 9.
 15 1 1 2 0 0 -2.7528 -2.00492 -3.20073 5 1.7768 0. -1
 -15 1 1 2 0 0 2.7528 2.00492 3.20073 5 1.7768 0. 1
</event>
<event>
 4 80 1 -1 -1 -1
 11 -1 0 0 0 0 0 0 5 5 0 0. 9.
 -11 -1 0 0 0 0 0 0 -4.99997 4.99997 0 0. 9.
 15 1 1 2 0 0 2.15941 4.13959 0.207074 4.99999 1.7768 0. -1
 -15 1 1 2 0 0 -2.15941 -4.13959 -0.207044 4.99998 1.7768 0. 1
</event>
<event>
 4 80 1 -1 -1 -1
 11 -1 0 0 0 0 0 0 5 5 0 0. 9.
 -11 -1 0 0 0 0 0 0 -4.90315 4.90315 0 0. 9.
 15 1 1 2 0 0 2.96117 2.19149 2.83906 4.97887 1.7768 0. -1
 -15 1 1 2 0 0 -2.96117 -2.19149 -2.74221 4.92429 1.7768 0. 1
</event>
<event>
 4 80 1 -1 -1 -1
 11 -1 0 0 0 0 0 0 4.99986 4.99986 0 0. 9.
 -11 -1 0 0 0 0 0 0 -4.56498 4.56498 0 0. 9.
 15 1 1 2 0 0 -2.58454 -3.34852 -1.11589 4.7218 1.7768 0. 1
 -15 1 1 2 0 0 2.58454 3.34852 1.55078 4.84304 1.7768 0. -1
</event>
<event>
 4 80 1 -1 -1 -1
 11 -1 0 0 0 0 0 0 4.99918 4.99918 0 0. 9.
 -11 -1 0 0 0 0 0 0 -5 5 0 0. 9.
 15 1 1 2 0 0 0.85783 3.44317 -3.04127 4.99984 1.7768 0. -1
 -15 1 1 2 0 0 -0.85783 -3.44317 3.04046 4.99934 1.7768 0. 1
</event>
<event>
 4 80 1 -1 -1 -1
 11 -1 0 0 0 0 0 0 5 5 0 0. 9.
 -11 -1 0 0 0 0 0 0 -4.99068 4.99068 0 0. 9.
 15 1 1 2 0 0 -2.47231 0.532741 3.92889 4.999 1.7768 0. 1
 -15 1 1 2 0 0 2.47231 -0.532741 -3.91957 4.99168 1.7768 0. -1
</event>
<event>
 4 80 1 -1 -1 -1
 11 -1 0 0 0 0 0 0 5 5 0 0. 9.
 -11 -1 0 0 0 0 0 0 -4.68404 4.68404 0 0. 9.
 15 1 1 2 0 0 0.686961 -0.869993 4.52306 4.98444 1.7768 0. -1
 -15 1 1 2 0 0 -0.686961 0.869993 -4.20711 4.6996 1.7768 0. 1
</event>
<event>
 4 80 1 -1 -1 -1
 11 -1 0 0 0 0 0 0 5 5 0 0. 9.
 -11 -1 0 0 0 0 0 0 -4.99987 4.99987 0 0. 9.
 15 1 1 2 0 0 4.39485 0.264153 1.56759 4.99996 1.7768 0. -1
 -15 1 1 2 0 0 -4.39485 -0.264153 -1.56747 4.99992 1.7768 0. 1
</event>
<event>
 4 80 1 -1 -1 -1
 11 -1 0 0 0 0 0 0 4.95676 4.95676 0 0. 9.
 -11 -1 0 0 0 0 0 0 -5 5 0 0. 9.
 15 1 1 2 0 0 4.4795 -1.19478 -0.385775 4.97996 1.7768 0. 1
 -15 1 1 2 0 0 -4.4795 1.19478 0.34253 4.9768 1.7768 0. -1
</event>
<event>
 4 80 1 -1 -1 -1
 11 -1 0 0 0 0 0 0 4.99998 4.99998 0 0. 9.
 -11 -1 0 0 0 0 0 0 -4.99994 4.99994 0 0. 9.
 15 1 1 2 0 0 4.19372 1.33788 -1.5699 4.99995 1.7768 0. 1
 -15 1 1 2 0 0 -4.19372 -1.33788 1.56993 4.99996 1.7768 0. -1
</event>
<event>
 4 80 1 -1 -1 -1
 11 -1 0 0 0 0 0 0 4.93757 4.93757 0 0. 9.
 -11 -1 0 0 0 0 0 0 -4.35549 4.35549 0 0. 9.
 15 1 1 2 0 0 3.58143 0.748918 -1.94051 4.50676 1.7768 0. -1
 -15 1 1 2 0 0 -3.58143 -0.748918 2.52259 4.78631 1.7768 0. 1
</event>
<event>
 4 80 1 -1 -1 -1
 11 -1 0 0 0 0 0 0 4.99921 4.99921 0 0. 9.
 -11 -1 0 0 0 0 0 0 -5 5 0 0. 9.
 15 1 1 2 0 0 0.818885 1.6891 4.27917 4.99927 1.7768 0. 1
 -15 1 1 2 0 0 -0.818885 -1.6891 -4.27996 4.99994 1.7768 0. -1
</event>
<event>
 4 80 1 -1 -1 -1
 11 -1 0 0 0 0 0 0 3.88483 3.88483 0 0. 9.
 -11 -1 0 0 0 0 0 0 -4.98824 4.98824 0 0. 9.
 15 1 1 2 0 0 -2.44101 -2.54185 1.41321 4.19219 1.7768 0. 1
 -15 1 1 2 0 0 2.44101 2.54185 -2.51663 4.68088 1.7768 0. -1
</event>
<event>
 4 80 1 -1 -1 -1
 11 -1 0 0 0 0 0 0 5 5 0 0. 9.
 -11 -1 0 0 0 0 0 0 -4.99981 4.99981 0 0. 9.
 15 1 1 2 0 0 0.611335 4.17543 -2.00824 4.99987 1.7768 0. -1
 -15 1 1 2 0 0 -0.611335 -4.17543 2.00843 4.99994 1.7768 0. 1
</event>
<event>
 4 80 1 -1 -1 -1
 11 -1 0 0 0 0 0 0 4.99978 4.99978 0 0. 9.
 -11 -1 0 0 0 0 0 0 -5 5 0 0. 9.
 15 1 1 2 0 0 2.03474 -3.71894 1.96726 4.99985 1.7768 0. 1
 -15 1 1 2 0 0 -2.03474 3.71894 -1.96747 4.99993 1.7768 0. -1
</event>
<event>
 4 80 1 -1 -1 -1
 11 -1 0 0 0 0 0 0 3.65399 3.65399 0 0. 9.
 -11 -1 0 0 0 0 0 0 -5 5 0 0. 9.
 15 1 1 2 0 0 1.90397 0.915403 -3.97651 4.84081 1.7768 0. -1
 -15 1 1 2 0 0 -1.90397 -0.915403 2.63051 3.81318 1.7768 0. 1
</event>
<event>
 4 80 1 -1 -1 -1
 11 -1 0 0 0 0 0 0 4.99999 4.99999 0 0. 9.
 -11 -1 0 0 0 0 0 0 -4.84245 4.84245 0 0. 9.
 15 1 1 2 0 0 -2.15203 1.52443 3.83417 4.98133 1.7768 0. 1
 -15 1 1 2 0 0 2.15203 -1.52443 -3.67662 4.86111 1.7768 0. -1
</event>
<event>
 4 80 1 -1 -1 -1
 11 -1 0 0 0 0 0 0 5 5 0 0. 9.
 -11 -1 0 0 0 0 0 0 -4.99978 4.99978 0 0. 9.
 15 1 1 2 0 0 -0.361919 -0.954369 4.56074 4.99999 1.7768 0. 1
 -15 1 1 2 0 0 0.361919 0.954369 -4.56052 4.99979 1.7768 0. -1
</event>
<event>
 4 80 1 -1 -1 -1
 11 -1 0 0 0 0 0 0 2.64182 2.64182 0 0. 9.
 -11 -1 0 0 0 0 0 0 -5 5 0 0. 9.
 15 1 1 2 0 0 -1.25975 -0.755519 1.77461 2.90943 1.7768 0. -1
 -15 1 1 2 0 0 1.25975 0.755519 -4.1328 4.73239 1.7768 0. 1
</event>
<event>
 4 80 1 -1 -1 -1
 11 -1 0 0 0 0 0 0 4.99668 4.99668 0 0. 9.
 -11 -1 0 0 0 0 0 0 -5 5 0 0. 9.
 15 1 1 2 0 0 0.11202 4.20796 -2.02803 4.99901 1.7768 0. -1
 -15 1 1 2 0 0 -0.11202 -4.20796 2.02471 4.99767 1.7768 0. 1
</event>
<event>
 4 80 1 -1 -1 -1
 11 -1 0 0 0 0 0 0 4.59072 4.59072 0 0. 9.
 -11 -1 0 0 0 0 0 0 -5 5 0 0. 9.
 15 1 1 2 0 0 3.04742 -2.92962 1.18459 4.73608 1.7768 0. -1
 -15 1 1 2 0 0 -3.04742 2.92962 -1.59386 4.85465 1.7768 0. 1
</event>
<event>
 4 80 1 -1 -1 -1
 11 -1 0 0 0 0 0 0 2.24212 2.24212 0 0. 9.
 -11 -1 0 0 0 0 0 0 -5 5 0 0. 9.
 15 1 1 2 0 0 -0.405093 0.438997 -4.37918 4.76358 1.7768 0. 1
 -15 1 1 2 0 0 0.405093 -0.438997 1.6213 2.47854 1.7768 0. -1
</event>
<event>
 4 80 1 -1 -1 -1
 11 -1 0 0 0 0 0 0 4.99987 4.99987 0 0. 9.
 -11 -1 0 0 0 0 0 0 -5 5 0 0. 9.
 15 1 1 2 0 0 4.24608 -1.35109 -1.40967 4.99995 1.7768 0. -1
 -15 1 1 2 0 0 -4.24608 1.35109 1.40954 4.99992 1.7768 0. 1
</event>
<event>
 4 80 1 -1 -1 -1
 11 -1 0 0 0 0 0 0 4.94419 4.94419 0 0. 9.
 -11 -1 0 0 0 0 0 0 -4.99989 4.99989 0 0. 9.
 15 1 1 2 0 0 4.04675 0.683176 2.14468 4.95987 1.7768 0. -1
 -15 1 1 2 0 0 -4.04675 -0.683176 -2.20039 4.98421 1.7768 0. 1
</event>
<event>
 4 80 1 -1 -1 -1
 11 -1 0 0 0 0 0 0 5 5 0 0. 9.
 -11 -1 0 0 0 0 0 0 -5 5 0 0. 9.
 15 1 1 2 0 0 -2.42624 -1.98708 -3.46514 5 1.7768 0. -1
 -15 1 1 2 0 0 2.42624 1.98708 3.46514 5 1.7768 0. 1
</event>
<event>
 4 80 1 -1 -1 -1
 11 -1 0 0 0 0 0 0 5 5 0 0. 9.
 -11 -1 0 0 0 0 0 0 -5 5 0 0. 9.
 15 1 1 2 0 0 0.433573 2.69716 3.79205 5 1.7768 0. -1
 -15 1 1 2 0 0 -0.433573 -2.69716 -3.79204 5 1.7768 0. 1
</event>
<event>
 4 80 1 -1 -1 -1
 11 -1 0 0 0 0 0 0 5 5 0 0. 9.
 -11 -1 0 0 0 0 0 0 -5 5 0 0. 9.
 15 1 1 2 0 0 3.01126 -2.37524 -2.67074 5 1.7768 0. 1
 -15 1 1 2 0 0 -3.01126 2.37524 2.67074 5 1.7768 0. -1
</event>
<event>
 4 80 1 -1 -1 -1
 11 -1 0 0 0 0 0 0 5 5 0 0. 9.
 -11 -1 0 0 0 0 0 0 -4.851 4.851 0 0. 9.
 15 1 1 2 0 0 -2.20898 0.426603 4.07941 4.98608 1.7768 0. 1
 -15 1 1 2 0 0 2.20898 -0.426603 -3.93042 4.86493 1.7768 0. -1
</event>
<event>
 4 80 1 -1 -1 -1
 11 -1 0 0 0 0 0 0 2.858 2.858 0 0. 9.
 -11 -1 0 0 0 0 0 0 -4.99029 4.99029 0 0. 9.
 15 1 1 2 0 0 -1.22362 -1.90695 -3.60517 4.61397 1.7768 0. 1
 -15 1 1 2 0 0 1.22362 1.90695 1.47288 3.23432 1.7768 0. -1
</event>
<event>
 4 80 1 -1 -1 -1
 11 -1 0 0 0 0 0 0 4.30632 4.30632 0 0. 9.
 -11 -1 0 0 0 0 0 0 -5 5 0 0. 9.
 15 1 1 2 0 0 -4.28191 -0.0369615 -0.541597 4.66768 1.7768 0. 1
 -15 1 1 2 0 0 4.28191 0.0369615 -0.152081 4.63864 1.7768 0. -1
</event>
<event>
 4 80 1 -1 -1 -1
 11 -1 0 0 0 0 0 0 5 5 0 0. 9.
 -11 -1 0 0 0 0 0 0 -5 5 0 0. 9.
 15 1 1 2 0 0 4.13189 -1.82991 1.19213 5 1.7768 0. 1
 -15 1 1 2 0 0 -4.13189 1.82991 -1.19213 5 1.7768 0. -1
</event>
<event>
 4 80 1 -1 -1 -1
 11 -1 0 0 0 0 0 0 5 5 0 0. 9.
 -11 -1 0 0 0 0 0 0 -4.99887 4.99887 0 0. 9.
 15 1 1 2 0 0 -4.64333 -0.300903 -0.430171 4.99939 1.7768 0. -1
 -15 1 1 2 0 0 4.64333 0.300903 0.431293 4.99948 1.7768 0. 1
</event>
<event>
 4 80 1 -1 -1 -1
 11 -1 0 0 0 0 0 0 5 5 0 0. 9.
 -11 -1 0 0 0 0 0 0 -5 5 0 0. 9.
 15 1 1 2 0 0 1.72511 -4.34336 0.0384508 5 1.7768 0. 1
 -15 1 1 2 0 0 -1.72511 4.34336 -0.0384508 5 1.7768 0. -1
</event>
<event>
 4 80 1 -1 -1 -1
 11 -1 0 0 0 0 0 0 5 5 0 0. 9.
 -11 -1 0 0 0 0 0 0 -4.99999 4.99999 0 0. 9.
 15 1 1 2 0 0 0.188451 3.65798 2.90274 5 1.7768 0. -1
 -15 1 1 2 0 0 -0.188451 -3.65798 -2.90273 4.99999 1.7768 0. 1
</event>
<event>
 4 80 1 -1 -1 -1
 11 -1 0 0 0 0 0 0 4.95367 4.95367 0 0. 9.
 -11 -1 0 0 0 0 0 0 -2.32553 2.32553 0 0. 9.
 15 1 1 2 0 0 0.835312 -2.30125 2.96445 4.23547 1.7768 0. 1
 -15 1 1 2 0 0 -0.835312 2.30125 -0.336306 3.04374 1.7768 0. -1
</event>
<event>
 4 80 1 -1 -1 -1
 11 -1 0 0 0 0 0 0 4.9648 4.9648 0 0. 9.
 -11 -1 0 0 0 0 0 0 -4.97715 4.97715 0 0. 9.
 15 1 1 2 0 0 -2.12763 0.193519 4.11555 4.96586 1.7768 0. -1
 -15 1 1 2 0 0 2.12763 -0.193519 -4.1279 4.9761 1.7768 0. 1
</event>
<event>
 4 80 1 -1 -1 -1
 11 -1 0 0 0 0 0 0 4.9999 4.9999 0 0. 9.
 -11 -1 0 0 0 0 0 0 -4.54051 4.54051 0 0. 9.
 15 1 1 2 0 0 3.04693 -2.65815 2.01918 4.85637 1.7768 0. -1
 -15 1 1 2 0 0 -3.04693 2.65815 -1.55979 4.68404 1.7768 0. 1
</event>
<event>
 4 80 1 -1 -1 -1
 11 -1 0 0 0 0 0 0 5 5 0 0. 9.
 -11 -1 0 0 0 0 0 0 -4.99121 4.99121 0 0. 9.
 15 1 1 2 0 0 -0.564711 -2.56291 -3.85707 4.9922 1.7768 0. -1
 -15 1 1 2 0 0 0.564711 2.56291 3.86586 4.999 1.7768 0. 1
</event>
<event>
 4 80 1 -1 -1 -1
 11 -1 0 0 0 0 0 0 4.99998 4.99998 0 0. 9.
 -11 -1 0 0 0 0 0 0 -4.99499 4.99499 0 0. 9.
 15 1 1 2 0 0 -0.632225 -1.30878 -4.43648 4.99527 1.7768 0. 1
 -15 1 1 2 0 0 0.632225 1.30878 4.44148 4.9997 1.7768 0. -1
</event>
<event>
 4 80 1 -1 -1 -1
 11 -1 0 0 0 0 0 0 0.701468 0.701468 0 0. 9.
 -11 -1 0 0 0 0 0 0 -4.89527 4.89527 0 0. 9.
 15 1 1 2 0 0 0.216777 -0.356764 -1.61491 2.4372 1.7768 0. -1
 -15 1 1 2 0 0 -0.216777 0.356764 -2.5789 3.15954 1.7768 0. 1
</event>
<event>
 4 80 1 -1 -1 -1
 11 -1 0 0 0 0 0 0 5 5 0 0. 9.
 -11 -1 0 0 0 0 0 0 -0.817691 0.817691 0 0. 9.
 15 1 1 2 0 0 -0.697783 0.112888 1.14661 2.22982 1.7768 0. -1
 -15 1 1 2 0 0 0.697783 -0.112888 3.0357 3.58787 1.7768 0. 1
</event>
<event>
 4 80 1 -1 -1 -1
 11 -1 0 0 0 0 0 0 4.99039 4.99039 0 0. 9.
 -11 -1 0 0 0 0 0 0 -5 5 0 0. 9.
 15 1 1 2 0 0 -2.52836 0.479425 3.89029 4.99144 1.7768 0. 1
 -15 1 1 2 0 0 2.52836 -0.479425 -3.8999 4.99894 1.7768 0. -1
</event>
<event>
 4 80 1 -1 -1 -1
 11 -1 0 0 0 0 0 0 5 5 0 0. 9.
 -11 -1 0 0 0 0 0 0 -3.58763 3.58763 0 0. 9.
 15 1 1 2 0 0 0.682045 2.76453 -1.91262 3.86312 1.7768 0. 1
 -15 1 1 2 0 0 -0.682045 -2.76453 3.32498 4.72452 1.7768 0. -1
</event>
<event>
 4 80 1 -1 -1 -1
 11 -1 0 0 0 0 0 0 5 5 0 0. 9.
 -11 -1 0 0 0 0 0 0 -5 5 0 0. 9.
 15 1 1 2 0 0 0.374791 -2.08196 4.1674 5 1.7768 0. 1
 -15 1 1 2 0 0 -0.374791 2.08196 -4.1674 5 1.7768 0. -1
</event>
<event>
 4 80 1 -1 -1 -1
 11 -1 0 0 0 0 0 0 5 5 0 0. 9.
 -11 -1 0 0 0 0 0 0 -4.94731 4.94731 0 0. 9.
 15 1 1 2 0 0 -1.81732 -2.77272 3.28034 4.99089 1.7768 0. 1
 -15 1 1 2 0 0 1.81732 2.77272 -3.22765 4.95642 1.7768 0. -1
</event>
<event>
 4 80 1 -1 -1 -1
 11 -1 0 0 0 0 0 0 4.99994 4.99994 0 0. 9.
 -11 -1 0 0 0 0 0 0 -5 5 0 0. 9.
 15 1 1 2 0 0 -1.81362 -3.88035 -1.86969 4.99998 1.7768 0. 1
 -15 1 1 2 0 0 1.81362 3.88035 1.86963 4.99996 1.7768 0. -1
</event>
<event>
 4 80 1 -1 -1 -1
 11 -1 0 0 0 0 0 0 5 5 0 0. 9.
 -11 -1 0 0 0 0 0 0 -5 5 0 0. 9.
 15 1 1 2 0 0 4.10614 1.16599 -1.90325 5 1.7768 0. 1
 -15 1 1 2 0 0 -4.10614 -1.16599 1.90325 5 1.7768 0. -1
</event>
<event>
 4 80 1 -1 -1 -1
 11 -1 0 0 0 0 0 0 5 5 0 0. 9.
 -11 -1 0 0 0 0 0 0 -5 5 0 0. 9.
 15 1 1 2 0 0 4.46536 1.18968 -0.69823 5 1.7768 0. -1
 -15 1 1 2 0 0 -4.46536 -1.18968 0.698229 5 1.7768 0. 1
</event>
<event>
 4 80 1 -1 -1 -1
 11 -1 0 0 0 0 0 0 4.97998 4.97998 0 0. 9.
 -11 -1 0 0 0 0 0 0 -5 5 0 0. 9.
 15 1 1 2 0 0 3.91676 -2.50146 0.369296 4.98923 1.7768 0. 1
 -15 1 1 2 0 0 -3.91676 2.50146 -0.389316 4.99075 1.7768 0. -1
</event>
<event>
 4 80 1 -1 -1 -1
 11 -1 0 0 0 0 0 0 5 5 0 0. 9.
 -11 -1 0 0 0 0 0 0 -5 5 0 0. 9.
 15 1 1 2 0 0 2.45358 -1.88999 3.50002 5 1.7768 0. -1
 -15 1 1 2 0 0 -2.45358 1.88999 -3.50002 5 1.7768 0. 1
</event>
<event>
 4 80 1 -1 -1 -1
 11 -1 0 0 0 0 0 0 4.91808 4.91808 0 0. 9.
 -11 -1 0 0 0 0 0 0 -4.89287 4.89287 0 0. 9.
 15 1 1 2 0 0 0.727987 4.46892 0.648698 4.90711 1.7768 0. 1
 -15 1 1 2 0 0 -0.727987 -4.46892 -0.62349 4.90384 1.7768 0. -1
</event>
<event>
 4 80 1 -1 -1 -1
 11 -1 0 0 0 0 0 0 3.35865 3.35865 0 0. 9.
 -11 -1 0 0 0 0 0 0 -4.99757 4.99757 0 0. 9.
 15 1 1 2 0 0 1.27281 3.31 0.226137 3.97304 1.7768 0. 1
 -15 1 1 2 0 0 -1.27281 -3.31 -1.86506 4.38319 1.7768 0. -1
</event>
<event>
 4 80 1 -1 -1 -1
 11 -1 0 0 0 0 0 0 4.93847 4.93847 0 0. 9.
 -11 -1 0 0 0 0 0 0 -5 5 0 0. 9.
 15 1 1 2 0 0 2.89268 -3.43239 1.14643 4.96195 1.7768 0. 1
 -15 1 1 2 0 0 -2.89268 3.43239 -1.20795 4.97652 1.7768 0. -1
</event>
<event>
 4 80 1 -1 -1 -1
 11 -1 0 0 0 0 0 0 1.71346 1.71346 0 0. 9.
 -11 -1 0 0 0 0 0 0 -4.99995 4.99995 0 0. 9.
 15 1 1 2 0 0 -1.37418 -1.54421 -2.86585 3.95522 1.7768 0. 1
 -15 1 1 2 0 0 1.37418 1.54421 -0.420647 2.75819 1.7768 0. -1
</event>
<event>
 4 80 1 -1 -1 -1
 11 -1 0 0 0 0 0 0 5 5 0 0. 9.
 -11 -1 0 0 0 0 0 0 -4.62182 4.62182 0 0. 9.
 15 1 1 2 0 0 4.4083 -0.027026 -0.530854 4.78261 1.7768 0. 1
 -15 1 1 2 0 0 -4.4083 0.027026 0.909033 4.83921 1.7768 0. -1
</event>
<event>
 4 80 1 -1 -1 -1
 11 -1 0 0 0 0 0 0 5 5 0 0. 9.
 -11 -1 0 0 0 0 0 0 -3.04463 3.04463 0 0. 9.
 15 1 1 2 0 0 2.1858 -2.67972 1.31461 4.10421 1.7768 0. -1
 -15 1 1 2 0 0 -2.1858 2.67972 0.640765 3.94042 1.7768 0. 1
</event>
<event>
 4 80 1 -1 -1 -1
 11 -1 0 0 0 0 0 0 5 5 0 0. 9.
 -11 -1 0 0 0 0 0 0 -5 5 0 0. 9.
 15 1 1 2 0 0 3.72339 2.75938 -0.603715 5 1.7768 0. -1
 -15 1 1 2 0 0 -3.72339 -2.75938 0.603715 5 1.7768 0. 1
</event>
<event>
 4 80 1 -1 -1 -1
 11 -1 0 0 0 0 0 0 5 5 0 0. 9.
 -11 -1 0 0 0 0 0 0 -3.28468 3.28468 0 0. 9.
 15 1 1 2 0 0 -3.32354 -1.15488 1.81977 4.34154 1.7768 0. 1
 -15 1 1 2 0 0 3.32354 1.15488 -0.104444 3.94314 1.7768 0. -1
</event>
<event>
 4 80 1 -1 -1 -1
 11 -1 0 0 0 0 0 0 4.60858 4.60858 0 0. 9.
 -11 -1 0 0 0 0 0 0 -5 5 0 0. 9.
 15 1 1 2 0 0 -3.25936 0.717151 -3.15577 4.92487 1.7768 0. -1
 -15 1 1 2 0 0 3.25936 -0.717151 2.76435 4.6837 1.7768 0. 1
</event>
<event>
 4 80 1 -1 -1 -1
 11 -1 0 0 0 0 0 0 4.99994 4.99994 0 0. 9.
 -11 -1 0 0 0 0 0 0 -2.59986 2.59986 0 0. 9.
 15 1 1 2 0 0 -0.982109 2.34816 -0.732727 3.18951 1.7768 0. -1
 -15 1 1 2 0 0 0.982109 -2.34816 3.13282 4.41029 1.7768 0. 1
</event>
<event>
 4 80 1 -1 -1 -1
 11 -1 0 0 0 0 0 0 4.7471 4.7471 0 0. 9.
 -11 -1 0 0 0 0 0 0 -5 5 0 0. 9.
 15 1 1 2 0 0 -0.185489 2.02184 3.93146 4.76827 1.7768 0. 1
 -15 1 1 2 0 0 0.185489 -2.02184 -4.18436 4.97884 1.7768 0. -1
</event>
<event>
 4 80 1 -1 -1 -1
 11 -1 0 0 0 0 0 0 5 5 0 0. 9.
 -11 -1 0 0 0 0 0 0 -5 5 0 0. 9.
 15 1 1 2 0 0 -2.05077 3.92595 -1.49114 5 1.7768 0. -1
 -15 1 1 2 0 0 2.05077 -3.92595 1.49114 5 1.7768 0. 1
</event>
<event>
 4 80 1 -1 -1 -1
 11 -1 0 0 0 0 0 0 5 5 0 0. 9.
 -11 -1 0 0 0 0 0 0 -1.24384 1.24384 0 0. 9.
 15 1 1 2 0 0 1.12531 0.230644 3.53033 4.11588 1.7768 0. 1
 -15 1 1 2 0 0 -1.12531 -0.230644 0.225829 2.12797 1.7768 0. -1
</event>
<event>
 4 80 1 -1 -1 -1
 11 -1 0 0 0 0 0 0 5 5 0 0. 9.
 -11 -1 0 0 0 0 0 0 -4.13579 4.13579 0 0. 9.
 15 1 1 2 0 0 -3.22982 1.03306 2.89719 4.80108 1.7768 0. -1
 -15 1 1 2 0 0 3.22982 -1.03306 -2.03299 4.33471 1.7768 0. 1
</event>
<event>
 4 80 1 -1 -1 -1
 11 -1 0 0 0 0 0 0 5 5 0 0. 9.
 -11 -1 0 0 0 0 0 0 -4.99959 4.99959 0 0. 9.
 15 1 1 2 0 0 1.58755 3.96954 1.8877 4.99987 1.7768 0. -1
 -15 1 1 2 0 0 -1.58755 -3.96954 -1.88729 4.99972 1.7768 0. 1
</event>
<event>
 4 80 1 -1 -1 -1
 11 -1 0 0 0 0 0 0 5 5 0 0. 9.
 -11 -1 0 0 0 0 0 0 -4.99776 4.99776 0 0. 9.
 15 1 1 2 0 0 0.610936 -2.87675 3.63184 4.99969 1.7768 0. 1
 -15 1 1 2 0 0 -0.610936 2.87675 -3.62961 4.99807 1.7768 0. -1
</event>
<event>
 4 80 1 -1 -1 -1
 11 -1 0 0 0 0 0 0 4.99999 4.99999 0 0. 9.
 -11 -1 0 0 0 0 0 0 -4.92909 4.92909 0 0. 9.
 15 1 1 2 0 0 -0.291952 4.6255 -0.0492338 4.96393 1.7768 0. -1
 -15 1 1 2 0 0 0.291952 -4.6255 0.120135 4.96514 1.7768 0. 1
</event>
<event>
 4 80 1 -1 -1 -1
 11 -1 0 0 0 0 0 0 4.97832 4.97832 0 0. 9.
 -11 -1 0 0 0 0 0 0 -5 5 0 0. 9.
 15 1 1 2 0 0 1.04395 2.30206 -3.92806 4.99767 1.7768 0. -1
 -15 1 1 2 0 0 -1.04395 -2.30206 3.90638 4.98064 1.7768 0. 1
</event>
<event>
 4 80 1 -1 -1 -1
 11 -1 0 0 0 0 0 0 5 5 0 0. 9.
 -11 -1 0 0 0 0 0 0 -4.40943 4.40943 0 0. 9.
 15 1 1 2 0 0 -2.90938 -0.0330293 3.53026 4.90775 1.7768 0. -1
 -15 1 1 2 0 0 2.90938 0.0330293 -2.93969 4.50168 1.7768 0. 1
</event>
<event>
 4 80 1 -1 -1 -1
 11 -1 0 0 0 0 0 0 2.10604 2.10604 0 0. 9.
 -11 -1 0 0 0 0 0 0 -5 5 0 0. 9.
 15 1 1 2 0 0 0.709603 0.815039 1.28035 2.4423 1.7768 0. 1
 -15 1 1 2 0 0 -0.709603 -0.815039 -4.17431 4.66373 1.7768 0. -1
</event>
<event>
 4 80 1 -1 -1 -1
 11 -1 0 0 0 0 0 0 5 5 0 0. 9.
 -11 -1 0 0 0 0 0 0 -5 5 0 0. 9.
 15 1 1 2 0 0 1.95796 -1.84125 3.82341 5 1.7768 0. -1
 -15 1 1 2 0 0 -1.95796 1.84125 -3.82341 5 1.7768 0. 1
</event>
<event>
 4 80 1 -1 -1 -1
 11 -1 0 0 0 0 0 0 4.99068 4.99068 0 0. 9.
 -11 -1 0 0 0 0 0 0 -5 5 0 0. 9.
 15 1 1 2 0 0 -2.47202 -1.04783 3.81461 4.99178 1.7768 0. -1
 -15 1 1 2 0 0 2.47202 1.04783 -3.82393 4.9989 1.7768 0. 1
</event>
<event>
 4 80 1 -1 -1 -1
 11 -1 0 0 0 0 0 0 4.08348 4.08348 0 0. 9.
 -11 -1 0 0 0 0 0 0 -4.72109 4.72109 0 0. 9.
 15 1 1 2 0 0 -3.14534 2.40033 0.365623 4.35272 1.7768 0. 1
 -15 1 1 2 0 0 3.14534 -2.40033 -1.00324 4.45185 1.7768 0. -1
</event>
<event>
 4 80 1 -1 -1 -1
 11 -1 0 0 0 0 0 0 5 5 0 0. 9.
 -11 -1 0 0 0 0 0 0 -4.51147 4.51147 0 0. 9.
 15 1 1 2 0 0 3.80871 1.99997 1.19074 4.80435 1.7768 0. -1
 -15 1 1 2 0 0 -3.80871 -1.99997 -0.702209 4.70712 1.7768 0. 1
</event>
<event>
 4 80 1 -1 -1 -1
 11 -1 0 0 0 0 0 0 5 5 0 0. 9.
 -11 -1 0 0 0 0 0 0 -5 5 0 0. 9.
 15 1 1 2 0 0 3.30966 -0.885669 3.17867 5 1.7768 0. 1
 -15 1 1 2 0 0 -3.30966 0.885669 -3.17868 5 1.7768 0. -1
</event>
<event>
 4 80 1 -1 -1 -1
 11 -1 0 0 0 0 0 0 5 5 0 0. 9.
 -11 -1 0 0 0 0 0 0 -2.89974 2.89974 0 0. 9.
 15 1 1 2 0 0 -1.45934 2.91281 0.165731 3.71474 1.7768 0. 1
 -15 1 1 2 0 0 1.45934 -2.91281 1.93452 4.185 1.7768 0. -1
</event>
<event>
 4 80 1 -1 -1 -1
 11 -1 0 0 0 0 0 0 4.99995 4.99995 0 0. 9.
 -11 -1 0 0 0 0 0 0 -5 5 0 0. 9.
 15 1 1 2 0 0 2.30351 2.47879 3.22356 4.99996 1.7768 0. -1
 -15 1 1 2 0 0 -2.30351 -2.47879 -3.22361 4.99999 1.7768 0. 1
</event>
<event>
 4 80 1 -1 -1 -1
 11 -1 0 0 0 0 0 0 5 5 0 0. 9.
 -11 -1 0 0 0 0 0 0 -3.8524 3.8524 0 0. 9.
 15 1 1 2 0 0 -0.17259 -3.19183 -1.87309 4.10899 1.7768 0. -1
 -15 1 1 2 0 0 0.17259 3.19183 3.0207 4.74341 1.7768 0. 1
</event>
<event>
 4 80 1 -1 -1 -1
 11 -1 0 0 0 0 0 0 4.99977 4.99977 0 0. 9.
 -11 -1 0 0 0 0 0 0 -4.98573 4.98573 0 0. 9.
 15 1 1 2 0 0 -0.509456 -4.59179 -0.645428 4.99183 1.7768 0. -1
 -15 1 1 2 0 0 0.509456 4.59179 0.65947 4.99367 1.7768 0. 1
</event>
<event>
 4 80 1 -1 -1 -1
 11 -1 0 0 0 0 0 0 4.99999 4.99999 0 0. 9.
 -11 -1 0 0 0 0 0 0 -5 5 0 0. 9.
 15 1 1 2 0 0 2.93021 3.09686 1.91456 5 1.7768 0. 1
 -15 1 1 2 0 0 -2.93021 -3.09686 -1.91457 5 1.7768 0. -1
</event>
<event>
 4 80 1 -1 -1 -1
 11 -1 0 0 0 0 0 0 4.99999 4.99999 0 0. 9.
 -11 -1 0 0 0 0 0 0 -5 5 0 0. 9.
 15 1 1 2 0 0 3.81613 0.686661 2.60919 5 1.7768 0. -1
 -15 1 1 2 0 0 -3.81613 -0.686661 -2.6092 5 1.7768 0. 1
</event>
<event>
 4 80 1 -1 -1 -1
 11 -1 0 0 0 0 0 0 4.99846 4.99846 0 0. 9.
 -11 -1 0 0 0 0 0 0 -5 5 0 0. 9.
 15 1 1 2 0 0 4.64789 -0.46536 -0.123997 4.99925 1.7768 0. -1
 -15 1 1 2 0 0 -4.64789 0.46536 0.122461 4.99921 1.7768 0. 1
</event>
<event>
 4 80 1 -1 -1 -1
 11 -1 0 0 0 0 0 0 5 5 0 0. 9.
 -11 -1 0 0 0 0 0 0 -5 5 0 0. 9.
 15 1 1 2 0 0 2.51541 2.18748 3.27565 5 1.7768 0. 1
 -15 1 1 2 0 0 -2.51541 -2.18748 -3.27565 5 1.7768 0. -1
</event>
<event>
 4 80 1 -1 -1 -1
 11 -1 0 0 0 0 0 0 5 5 0 0. 9.
 -11 -1 0 0 0 0 0 0 -5 5 0 0. 9.
 15 1 1 2 0 0 2.87935 2.77757 -2.41593 5 1.7768 0. -1
 -15 1 1 2 0 0 -2.87935 -2.77757 2.41593 5 1.7768 0. 1
</event>
<event>
 4 80 1 -1 -1 -1
 11 -1 0 0 0 0 0 0 5 5 0 0. 9.
 -11 -1 0 0 0 0 0 0 -5 5 0 0. 9.
 15 1 1 2 0 0 -2.56731 3.68259 1.2999 5 1.7768 0. -1
 -15 1 1 2 0 0 2.56731 -3.68259 -1.2999 5 1.7768 0. 1
</event>
<event>
 4 80 1 -1 -1 -1
 11 -1 0 0 0 0 0 0 4.99999 4.99999 0 0. 9.
 -11 -1 0 0 0 0 0 0 -4.74421 4.74421 0 0. 9.
 15 1 1 2 0 0 1.63242 0.371285 -4.0879 4.76144 1.7768 0. -1
 -15 1 1 2 0 0 -1.63242 -0.371285 4.34367 4.98276 1.7768 0. 1
</event>
<event>
 4 80 1 -1 -1 -1
 11 -1 0 0 0 0 0 0 5 5 0 0. 9.
 -11 -1 0 0 0 0 0 0 -4.9926 4.9926 0 0. 9.
 15 1 1 2 0 0 -1.42921 0.824035 -4.36478 4.99307 1.7768 0. 1
 -15 1 1 2 0 0 1.42921 -0.824035 4.37218 4.99953 1.7768 0. -1
</event>
<event>
 4 80 1 -1 -1 -1
 11 -1 0 0 0 0 0 0 5 5 0 0. 9.
 -11 -1 0 0 0 0 0 0 -5 5 0 0. 9.
 15 1 1 2 0 0 0.709872 4.61752 -0.129976 5 1.7768 0. 1
 -15 1 1 2 0 0 -0.709872 -4.61752 0.129976 5 1.7768 0. -1
</event>
<event>
 4 80 1 -1 -1 -1
 11 -1 0 0 0 0 0 0 3.43982 3.43982 0 0. 9.
 -11 -1 0 0 0 0 0 0 -5 5 0 0. 9.
 15 1 1 2 0 0 -1.75754 3.13876 0.287415 4.02257 1.7768 0. 1
 -15 1 1 2 0 0 1.75754 -3.13876 -1.84759 4.41725 1.7768 0. -1
</event>
<event>
 4 80 1 -1 -1 -1
 11 -1 0 0 0 0 0 0 5 5 0 0. 9.
 -11 -1 0 0 0 0 0 0 -5 5 0 0. 9.
 15 1 1 2 0 0 -2.72101 -1.66421 3.41595 5 1.7768 0. -1
 -15 1 1 2 0 0 2.72101 1.66421 -3.41596 5 1.7768 0. 1
</event>
<event>
 4 80 1 -1 -1 -1
 11 -1 0 0 0 0 0 0 3.80281 3.80281 0 0. 9.
 -11 -1 0 0 0 0 0 0 -2.09698 2.09698 0 0. 9.
 15 1 1 2 0 0 0.844185 -1.25261 2.51612 3.43079 1.7768 0. 1
 -15 1 1 2 0 0 -0.844185 1.25261 -0.810301 2.46901 1.7768 0. -1
</event>
<event>
 4 80 1 -1 -1 -1
 11 -1 0 0 0 0 0 0 5 5 0 0. 9.
 -11 -1 0 0 0 0 0 0 -5 5 0 0. 9.
 15 1 1 2 0 0 2.68045 -0.803709 3.7432 5 1.7768 0. -1
 -15 1 1 2 0 0 -2.68045 0.803709 -3.7432 5 1.7768 0. 1
</event>
<event>
 4 80 1 -1 -1 -1
 11 -1 0 0 0 0 0 0 5 5 0 0. 9.
 -11 -1 0 0 0 0 0 0 -4.94999 4.94999 0 0. 9.
 15 1 1 2 0 0 0.0348675 -1.42046 4.44923 4.99723 1.7768 0. 1
 -15 1 1 2 0 0 -0.0348675 1.42046 -4.39923 4.95276 1.7768 0. -1
</event>
<event>
 4 80 1 -1 -1 -1
 11 -1 0 0 0 0 0 0 5 5 0 0. 9.
 -11 -1 0 0 0 0 0 0 -5 5 0 0. 9.
 15 1 1 2 0 0 -4.61535 -0.369342 0.635895 5 1.7768 0. -1
 -15 1 1 2 0 0 4.61535 0.369342 -0.635895 5 1.7768 0. 1
</event>
<event>
 4 80 1 -1 -1 -1
 11 -1 0 0 0 0 0 0 4.99613 4.99613 0 0. 9.
 -11 -1 0 0 0 0 0 0 -5 5 0 0. 9.
 15 1 1 2 0 0 -2.49666 2.21071 -3.27338 4.99933 1.7768 0. 1
 -15 1 1 2 0 0 2.49666 -2.21071 3.26951 4.9968 1.7768 0. -1
</event>
<event>
 4 80 1 -1 -1 -1
 11 -1 0 0 0 0 0 0 4.99114 4.99114 0 0. 9.
 -11 -1 0 0 0 0 0 0 -5 5 0 0. 9.
 15 1 1 2 0 0 -0.0225846 1.74153 -4.33624 4.99941 1.7768 0. 1
 -15 1 1 2 0 0 0.0225846 -1.74153 4.32738 4.99173 1.7768 0. -1
</event>
<event>
 4 80 1 -1 -1 -1
 11 -1 0 0 0 0 0 0 5 5 0 0. 9.
 -11 -1 0 0 0 0 0 0 -3.54005 3.54005 0 0. 9.
 15 1 1 2 0 0 -1.28821 -1.1293 -2.72794 3.67888 1.7768 0. 1
 -15 1 1 2 0 0 1.28821 1.1293 4.18789 4.86117 1.7768 0. -1
</event>
<event>
 4 80 1 -1 -1 -1
 11 -1 0 0 0 0 0 0 5 5 0 0. 9.
 -11 -1 0 0 0 0 0 0 -4.99849 4.99849 0 0. 9.
 15 1 1 2 0 0 4.28346 -1.85096 0.246897 4.99928 1.7768 0. -1
 -15 1 1 2 0 0 -4.28346 1.85096 -0.245387 4.99921 1.7768 0. 1
</event>
<event>
 4 80 1 -1 -1 -1
 11 -1 0 0 0 0 0 0 4.99983 4.99983 0 0. 9.
 -11 -1 0 0 0 0 0 0 -5 5 0 0. 9.
 15 1 1 2 0 0 -0.573962 -1.52627 4.37969 4.99984 1.7768 0. 1
 -15 1 1 2 0 0 0.573962 1.52627 -4.37986 4.99999 1.7768 0. -1
</event>
<event>
 4 80 1 -1 -1 -1
 11 -1 0 0 0 0 0 0 5 5 0 0. 9.
 -11 -1 0 0 0 0 0 0 -4.99985 4.99985 0 0. 9.
 15 1 1 2 0 0 -2.4269 -2.77262 -2.87468 4.99988 1.7768 0. -1
 -15 1 1 2 0 0 2.4269 2.77262 2.87484 4.99997 1.7768 0. 1
</event>
<event>
 4 80 1 -1 -1 -1
 11 -1 0 0 0 0 0 0 4.57292 4.57292 0 0. 9.
 -11 -1 0 0 0 0 0 0 -5 5 0 0. 9.
 15 1 1 2 0 0 1.47969 3.81987 -1.92578 4.86285 1.7768 0. 1
 -15 1 1 2 0 0 -1.47969 -3.81987 1.4987 4.71007 1.7768 0. -1
</event>
<event>
 4 80 1 -1 -1 -1
 11 -1 0 0 0 0 0 0 5 5 0 0. 9.
 -11 -1 0 0 0 0 0 0 -4.99942 4.99942 0 0. 9.
 15 1 1 2 0 0 -0.59951 0.182694 -4.63075 4.99944 1.7768 0. -1
 -15 1 1 2 0 0 0.59951 -0.182694 4.63134 4.99998 1.7768 0. 1
</event>
<event>
 4 80 1 -1 -1 -1
 11 -1 0 0 0 0 0 0 4.99937 4.99937 0 0. 9.
 -11 -1 0 0 0 0 0 0 -5 5 0 0. 9.
 15 1 1 2 0 0 -1.72592 -3.27053 -2.85758 4.99987 1.7768 0. 1
 -15 1 1 2 0 0 1.72592 3.27053 2.85696 4.99951 1.7768 0. -1
</event>
<event>
 4 80 1 -1 -1 -1
 11 -1 0 0 0 0 0 0 5 5 0 0. 9.
 -11 -1 0 0 0 0 0 0 -5 5 0 0. 9.
 15 1 1 2 0 0 -1.893 -1.73348 3.90562 5 1.7768 0. 1
 -15 1 1 2 0 0 1.893 1.73348 -3.90562 5 1.7768 0. -1
</event>
<event>
 4 80 1 -1 -1 -1
 11 -1 0 0 0 0 0 0 5 5 0 0. 9.
 -11 -1 0 0 0 0 0 0 -5 5 0 0. 9.
 15 1 1 2 0 0 2.70969 -2.31484 3.02346 5 1.7768 0. -1
 -15 1 1 2 0 0 -2.70969 2.31484 -3.02346 5 1.7768 0. 1
</event>
<event>
 4 80 1 -1 -1 -1
 11 -1 0 0 0 0 0 0 5 5 0 0. 9.
 -11 -1 0 0 0 0 0 0 -4.93219 4.93219 0 0. 9.
 15 1 1 2 0 0 0.695717 2.71894 -3.6576 4.9409 1.7768 0. -1
 -15 1 1 2 0 0 -0.695717 -2.71894 3.72541 4.9913 1.7768 0. 1
</event>
<event>
 4 80 1 -1 -1 -1
 11 -1 0 0 0 0 0 0 5 5 0 0. 9.
 -11 -1 0 0 0 0 0 0 -5 5 0 0. 9.
 15 1 1 2 0 0 -4.43157 -0.729474 -1.29281 5 1.7768 0. -1
 -15 1 1 2 0 0 4.43157 0.729474 1.29281 5 1.7768 0. 1
</event>
<event>
 4 80 1 -1 -1 -1
 11 -1 0 0 0 0 0 0 4.99842 4.99842 0 0. 9.
 -11 -1 0 0 0 0 0 0 -5 5 0 0. 9.
 15 1 1 2 0 0 -1.78292 4.00137 -1.627 4.99947 1.7768 0. 1
 -15 1 1 2 0 0 1.78292 -4.00137 1.62542 4.99895 1.7768 0. -1
</event>
<event>
 4 80 1 -1 -1 -1
 11 -1 0 0 0 0 0 0 5 5 0 0. 9.
 -11 -1 0 0 0 0 0 0 -3.34629 3.34629 0 0. 9.
 15 1 1 2 0 0 0.69158 1.70118 4.08542 4.81879 1.7768 0. -1
 -15 1 1 2 0 0 -0.69158 -1.70118 -2.43172 3.5275 1.7768 0. 1
</event>
<event>
 4 80 1 -1 -1 -1
 11 -1 0 0 0 0 0 0 5 5 0 0. 9.
 -11 -1 0 0 0 0 0 0 -4.9866 4.9866 0 0. 9.
 15 1 1 2 0 0 -0.561784 -4.27884 -1.76847 4.99092 1.7768 0. 1
 -15 1 1 2 0 0 0.561784 4.27884 1.78187 4.99568 1.7768 0. -1
</event>
<event>
 4 80 1 -1 -1 -1
 11 -1 0 0 0 0 0 0 4.99983 4.99983 0 0. 9.
 -11 -1 0 0 0 0 0 0 -5 5 0 0. 9.
 15 1 1 2 0 0 4.19101 -1.19946 -1.68477 4.99994 1.7768 0. -1
 -15 1 1 2 0 0 -4.19101 1.19946 1.6846 4.99989 1.7768 0. 1
</event>
<event>
 4 80 1 -1 -1 -1
 11 -1 0 0 0 0 0 0 4.9908 4.9908 0 0. 9.
 -11 -1 0 0 0 0 0 0 -5 5 0 0. 9.
 15 1 1 2 0 0 -2.97977 -2.84475 2.19192 4.99338 1.7768 0. -1
 -15 1 1 2 0 0 2.97977 2.84475 -2.20112 4.99742 1.7768 0. 1
</event>
<event>
 4 80 1 -1 -1 -1
 11 -1 0 0 0 0 0 0 5 5 0 0. 9.
 -11 -1 0 0 0 0 0 0 -4.99921 4.99921 0 0. 9.
 15 1 1 2 0 0 1.2223 -1.80687 -4.13235 4.99928 1.7768 0. 1
 -15 1 1 2 0 0 -1.2223 1.80687 4.13313 4.99993 1.7768 0. -1
</event>
<event>
 4 80 1 -1 -1 -1
 11 -1 0 0 0 0 0 0 5 5 0 0. 9.
 -11 -1 0 0 0 0 0 0 -4.99977 4.99977 0 0. 9.
 15 1 1 2 0 0 -0.137632 1.53438 4.41235 4.99999 1.7768 0. -1
 -15 1 1 2 0 0 0.137632 -1.53438 -4.41212 4.99978 1.7768 0. 1
</event>
<event>
 4 80 1 -1 -1 -1
 11 -1 0 0 0 0 0 0 5 5 0 0. 9.
 -11 -1 0 0 0 0 0 0 -5 5 0 0. 9.
 15 1 1 2 0 0 -4.15154 -1.45435 1.57855 5 1.7768 0. 1
 -15 1 1 2 0 0 4.15154 1.45435 -1.57855 5 1.7768 0. -1
</event>
<event>
 4 80 1 -1 -1 -1
 11 -1 0 0 0 0 0 0 5 5 0 0. 9.
 -11 -1 0 0 0 0 0 0 -5 5 0 0. 9.
 15 1 1 2 0 0 -1.25054 -3.46045 -2.88161 5 1.7768 0. 1
 -15 1 1 2 0 0 1.25054 3.46045 2.88162 5 1.7768 0. -1
</event>
<event>
 4 80 1 -1 -1 -1
 11 -1 0 0 0 0 0 0 5 5 0 0. 9.
 -11 -1 0 0 0 0 0 0 -4.99612 4.99612 0 0. 9.
 15 1 1 2 0 0 -4.02061 -1.1727 -2.06744 4.99726 1.7768 0. 1
 -15 1 1 2 0 0 4.02061 1.1727 2.07132 4.99886 1.7768 0. -1
</event>
<event>
 4 80 1 -1 -1 -1
 11 -1 0 0 0 0 0 0 5 5 0 0. 9.
 -11 -1 0 0 0 0 0 0 -4.99963 4.99963 0 0. 9.
 15 1 1 2 0 0 -1.93266 2.38941 -3.52061 4.99968 1.7768 0. -1
 -15 1 1 2 0 0 1.93266 -2.38941 3.52098 4.99995 1.7768 0. 1
</event>
<event>
 4 80 1 -1 -1 -1
 11 -1 0 0 0 0 0 0 5 5 0 0. 9.
 -11 -1 0 0 0 0 0 0 -4.79924 4.79924 0 0. 9.
 15 1 1 2 0 0 -1.08046 3.18384 -2.98803 4.83635 1.7768 0. 1
 -15 1 1 2 0 0 1.08046 -3.18384 3.18879 4.96289 1.7768 0. -1
</event>
<event>
 4 80 1 -1 -1 -1
 11 -1 0 0 0 0 0 0 1.0966 1.0966 0 0. 9.
 -11 -1 0 0 0 0 0 0 -4.99922 4.99922 0 0. 9.
 15 1 1 2 0 0 1.17361 -0.654514 -1.01378 2.4477 1.7768 0. -1
 -15 1 1 2 0 0 -1.17361 0.654514 -2.88883 3.64812 1.7768 0. 1
</event>
<event>
 4 80 1 -1 -1 -1
 11 -1 0 0 0 0 0 0 5 5 0 0. 9.
 -11 -1 0 0 0 0 0 0 -5 5 0 0. 9.
 15 1 1 2 0 0 1.30722 -3.2053 3.13998 5 1.7768 0. -1
 -15 1 1 2 0 0 -1.30722 3.2053 -3.13998 5 1.7768 0. 1
</event>
<event>
 4 80 1 -1 -1 -1
 11 -1 0 0 0 0 0 0 5 5 0 0. 9.
 -11 -1 0 0 0 0 0 0 -4.99913 4.99913 0 0. 9.
 15 1 1 2 0 0 -2.79196 1.55962 3.40784 4.99986 1.7768 0. -1
 -15 1 1 2 0 0 2.79196 -1.55962 -3.40697 4.99926 1.7768 0. 1
</event>
<event>
 4 80 1 -1 -1 -1
 11 -1 0 0 0 0 0 0 5 5 0 0. 9.
 -11 -1 0 0 0 0 0 0 -4.99849 4.99849 0 0. 9.
 15 1 1 2 0 0 1.11517 -3.74399 -2.56315 4.99885 1.7768 0. -1
 -15 1 1 2 0 0 -1.11517 3.74399 2.56467 4.99963 1.7768 0. 1
</event>
<event>
 4 80 1 -1 -1 -1
 11 -1 0 0 0 0 0 0 5 5 0 0. 9.
 -11 -1 0 0 0 0 0 0 -5 5 0 0. 9.
 15 1 1 2 0 0 4.01096 1.23372 2.05728 5 1.7768 0. 1
 -15 1 1 2 0 0 -4.01096 -1.23372 -2.05728 5 1.7768 0. -1
</event>
<event>
 4 80 1 -1 -1 -1
 11 -1 0 0 0 0 0 0 4.99996 4.99996 0 0. 9.
 -11 -1 0 0 0 0 0 0 -2.86933 2.86933 0 0. 9.
 15 1 1 2 0 0 2.08618 -1.10098 -1.3983 3.26761 1.7768 0. 1
 -15 1 1 2 0 0 -2.08618 1.10098 3.52893 4.60167 1.7768 0. -1
</event>
<event>
 4 80 1 -1 -1 -1
 11 -1 0 0 0 0 0 0 4.71793 4.71793 0 0. 9.
 -11 -1 0 0 0 0 0 0 -3.35093 3.35093 0 0. 9.
 15 1 1 2 0 0 -1.34531 -2.02796 -1.94862 3.5885 1.7768 0. -1
 -15 1 1 2 0 0 1.34531 2.02796 3.31563 4.48036 1.7768 0. 1
</event>
<event>
 4 80 1 -1 -1 -1
 11 -1 0 0 0 0 0 0 1.85823 1.85823 0 0. 9.
 -11 -1 0 0 0 0 0 0 -5 5 0 0. 9.
 15 1 1 2 0 0 1.28512 1.23103 -3.5085 4.31674 1.7768 0. -1
 -15 1 1 2 0 0 -1.28512 -1.23103 0.366731 2.54149 1.7768 0. 1
</event>
<event>
 4 80 1 -1 -1 -1
 11 -1 0 0 0 0 0 0 4.99976 4.99976 0 0. 9.
 -11 -1 0 0 0 0 0 0 -4.98673 4.98673 0 0. 9.
 15 1 1 2 0 0 -1.87312 3.26093 2.76922 4.99685 1.7768 0. 1
 -15 1 1 2 0 0 1.87312 -3.26093 -2.75618 4.98964 1.7768 0. -1
</event>
<event>
 4 80 1 -1 -1 -1
 11 -1 0 0 0 0 0 0 4.99951 4.99951 0 0. 9.
 -11 -1 0 0 0 0 0 0 -5 5 0 0. 9.
 15 1 1 2 0 0 -2.06208 -0.202039 -4.18913 4.99996 1.7768 0. 1
 -15 1 1 2 0 0 2.06208 0.202039 4.18865 4.99955 1.7768 0. -1
</event>
<event>
 4 80 1 -1 -1 -1
 11 -1 0 0 0 0 0 0 5 5 0 0. 9.
 -11 -1 0 0 0 0 0 0 -1.05292 1.05292 0 0. 9.
 15 1 1 2 0 0 -1.31468 -0.335954 2.65334 3.46975 1.7768 0. 1
 -15 1 1 2 0 0 1.31468 0.335954 1.29374 2.58316 1.7768 0. -1
</event>
<event>
 4 80 1 -1 -1 -1
 11 -1 0 0 0 0 0 0 4.95321 4.95321 0 0. 9.
 -11 -1 0 0 0 0 0 0 -5 5 0 0. 9.
 15 1 1 2 0 0 -4.13142 1.97325 -0.827133 4.98038 1.7768 0. -1
 -15 1 1 2 0 0 4.13142 -1.97325 0.78034 4.97283 1.7768 0. 1
</event>
<event>
 4 80 1 -1 -1 -1
 11 -1 0 0 0 0 0 0 4.93798 4.93798 0 0. 9.
 -11 -1 0 0 0 0 0 0 -4.9999 4.9999 0 0. 9.
 15 1 1 2 0 0 -0.209085 0.523404 -4.63692 4.99764 1.7768 0. 1
 -15 1 1 2 0 0 0.209085 -0.523404 4.575 4.94024 1.7768 0. -1
</event>
<event>
 4 80 1 -1 -1 -1
 11 -1 0 0 0 0 0 0 4.99273 4.99273 0 0. 9.
 -11 -1 0 0 0 0 0 0 -5 5 0 0. 9.
 15 1 1 2 0 0 0.0937779 4.49179 -1.27681 4.99729 1.7768 0. -1
 -15 1 1 2 0 0 -0.0937779 -4.49179 1.26953 4.99544 1.7768 0. 1
</event>
<event>
 4 80 1 -1 -1 -1
 11 -1 0 0 0 0 0 0 5 5 0 0. 9.
 -11 -1 0 0 0 0 0 0 -4.89734 4.89734 0 0. 9.
 15 1 1 2 0 0 -0.419407 3.77232 -2.57991 4.92138 1.7768 0. 1
 -15 1 1 2 0 0 0.419407 -3.77232 2.68257 4.97596 1.7768 0. -1
</event>
<event>
 4 80 1 -1 -1 -1
 11 -1 0 0 0 0 0 0 2.62252 2.62252 0 0. 9.
 -11 -1 0 0 0 0 0 0 -5 5 0 0. 9.
 15 1 1 2 0 0 -1.70883 -0.875437 1.44639 2.98936 1.7768 0. 1
 -15 1 1 2 0 0 1.70883 0.875437 -3.82387 4.63316 1.7768 0. -1
</event>
<event>
 4 80 1 -1 -1 -1
 11 -1 0 0 0 0 0 0 5 5 0 0. 9.
 -11 -1 0 0 0 0 0 0 -5 5 0 0. 9.
 15 1 1 2 0 0 3.07887 3.47101 0.561173 5 1.7768 0. -1
 -15 1 1 2 0 0 -3.07887 -3.47101 -0.561173 5 1.7768 0. 1
</event>
<event>
 4 80 1 -1 -1 -1
 11 -1 0 0 0 0 0 0 5 5 0 0. 9.
 -11 -1 0 0 0 0 0 0 -5 5 0 0. 9.
 15 1 1 2 0 0 -0.076888 0.148879 4.67056 5 1.7768 0. -1
 -15 1 1 2 0 0 0.076888 -0.148879 -4.67056 5 1.7768 0. 1
</event>
<event>
 4 80 1 -1 -1 -1
 11 -1 0 0 0 0 0 0 4.99738 4.99738 0 0. 9.
 -11 -1 0 0 0 0 0 0 -5 5 0 0. 9.
 15 1 1 2 0 0 -1.17251 2.73168 -3.60579 4.99963 1.7768 0. -1
 -15 1 1 2 0 0 1.17251 -2.73168 3.60317 4.99774 1.7768 0. 1
</event>
<event>
 4 80 1 -1 -1 -1
 11 -1 0 0 0 0 0 0 5 5 0 0. 9.
 -11 -1 0 0 0 0 0 0 -3.69281 3.69281 0 0. 9.
 15 1 1 2 0 0 -1.11391 -2.75131 3.2316 4.73408 1.7768 0. 1
 -15 1 1 2 0 0 1.11391 2.75131 -1.92441 3.95873 1.7768 0. -1
</event>
<event>
 4 80 1 -1 -1 -1
 11 -1 0 0 0 0 0 0 4.99999 4.99999 0 0. 9.
 -11 -1 0 0 0 0 0 0 -5 5 0 0. 9.
 15 1 1 2 0 0 2.92998 3.63938 0.111292 4.99999 1.7768 0. 1
 -15 1 1 2 0 0 -2.92998 -3.63938 -0.111305 4.99999 1.7768 0. -1
</event>
<event>
 4 80 1 -1 -1 -1
 11 -1 0 0 0 0 0 0 5 5 0 0. 9.
 -11 -1 0 0 0 0 0 0 -4.98267 4.98267 0 0. 9.
 15 1 1 2 0 0 -0.0613898 -2.65787 3.84111 4.99799 1.7768 0. -1
 -15 1 1 2 0 0 0.0613898 2.65787 -3.82377 4.98468 1.7768 0. 1
</event>
<event>
 4 80 1 -1 -1 -1
 11 -1 0 0 0 0 0 0 4.81951 4.81951 0 0. 9.
 -11 -1 0 0 0 0 0 0 -5 5 0 0. 9.
 15 1 1 2 0 0 -1.36103 0.961665 -4.35273 4.9881 1.7768 0. -1
 -15 1 1 2 0 0 1.36103 -0.961665 4.17223 4.8314 1.7768 0. 1
</event>
<event>
 4 80 1 -1 -1 -1
 11 -1 0 0 0 0 0 0 4.99999 4.99999 0 0. 9.
 -11 -1 0 0 0 0 0 0 -5 5 0 0. 9.
 15 1 1 2 0 0 -1.21743 -2.95467 3.41028 4.99999 1.7768 0. 1
 -15 1 1 2 0 0 1.21743 2.95467 -3.41029 5 1.7768 0. -1
</event>
<event>
 4 80 1 -1 -1 -1
 11 -1 0 0 0 0 0 0 5 5 0 0. 9.
 -11 -1 0 0 0 0 0 0 -4.65032 4.65032 0 0. 9.
 15 1 1 2 0 0 -2.6006 3.64631 -0.0126646 4.81836 1.7768 0. -1
 -15 1 1 2 0 0 2.6006 -3.64631 0.362348 4.83195 1.7768 0. 1
</event>
<event>
 4 80 1 -1 -1 -1
 11 -1 0 0 0 0 0 0 3.69991 3.69991 0 0. 9.
 -11 -1 0 0 0 0 0 0 -5 5 0 0. 9.
 15 1 1 2 0 0 -2.63196 -0.894591 2.1407 3.93292 1.7768 0. 1
 -15 1 1 2 0 0 2.63196 0.894591 -3.44079 4.767 1.7768 0. -1
</event>
<event>
 4 80 1 -1 -1 -1
 11 -1 0 0 0 0 0 0 5 5 0 0. 9.
 -11 -1 0 0 0 0 0 0 -4.99862 4.99862 0 0. 9.
 15 1 1 2 0 0 -1.35398 1.83075 4.08119 4.99987 1.7768 0. 1
 -15 1 1 2 0 0 1.35398 -1.83075 -4.07981 4.99875 1.7768 0. -1
</event>
<event>
 4 80 1 -1 -1 -1
 11 -1 0 0 0 0 0 0 5 5 0 0. 9.
 -11 -1 0 0 0 0 0 0 -5 5 0 0. 9.
 15 1 1 2 0 0 -4.36494 -0.32808 -1.63766 5 1.7768 0. 1
 -15 1 1 2 0 0 4.36494 0.32808 1.63766 5 1.7768 0. -1
</event>
<event>
 4 80 1 -1 -1 -1
 11 -1 0 0 0 0 0 0 4.99997 4.99997 0 0. 9.
 -11 -1 0 0 0 0 0 0 -4.9795 4.9795 0 0. 9.
 15 1 1 2 0 0 2.69543 -2.65119 2.73888 4.99534 1.7768 0. -1
 -15 1 1 2 0 0 -2.69543 2.65119 -2.71841 4.98414 1.7768 0. 1
</event>
<event>
 4 80 1 -1 -1 -1
 11 -1 0 0 0 0 0 0 5 5 0 0. 9.
 -11 -1 0 0 0 0 0 0 -5 5 0 0. 9.
 15 1 1 2 0 0 4.5746 0.939207 -0.182219 5 1.7768 0. -1
 -15 1 1 2 0 0 -4.5746 -0.939207 0.182219 5 1.7768 0. 1
</event>
<event>
 4 80 1 -1 -1 -1
 11 -1 0 0 0 0 0 0 5 5 0 0. 9.
 -11 -1 0 0 0 0 0 0 -4.27349 4.27349 0 0. 9.
 15 1 1 2 0 0 -3.46772 0.889313 2.69287 4.81925 1.7768 0. 1
 -15 1 1 2 0 0 3.46772 -0.889313 -1.96636 4.45424 1.7768 0. -1
</event>
<event>
 4 80 1 -1 -1 -1
 11 -1 0 0 0 0 0 0 5 5 0 0. 9.
 -11 -1 0 0 0 0 0 0 -5 5 0 0. 9.
 15 1 1 2 0 0 1.8791 2.49985 3.47304 5 1.7768 0. 1
 -15 1 1 2 0 0 -1.8791 -2.49985 -3.47304 5 1.7768 0. -1
</event>
<event>
 4 80 1 -1 -1 -1
 11 -1 0 0 0 0 0 0 5 5 0 0. 9.
 -11 -1 0 0 0 0 0 0 -4.99997 4.99997 0 0. 9.
 15 1 1 2 0 0 4.59807 -0.0219226 -0.836305 4.99998 1.7768 0. -1
 -15 1 1 2 0 0 -4.59807 0.0219226 0.836334 4.99999 1.7768 0. 1
</event>
<event>
 4 80 1 -1 -1 -1
 11 -1 0 0 0 0 0 0 4.99998 4.99998 0 0. 9.
 -11 -1 0 0 0 0 0 0 -2.98707 2.98707 0 0. 9.
 15 1 1 2 0 0 2.03092 -1.2966 3.53169 4.62994 1.7768 0. 1
 -15 1 1 2 0 0 -2.03092 1.2966 -1.51877 3.35711 1.7768 0. -1
</event>
<event>
 4 80 1 -1 -1 -1
 11 -1 0 0 0 0 0 0 5 5 0 0. 9.
 -11 -1 0 0 0 0 0 0 -5 5 0 0. 9.
 15 1 1 2 0 0 4.44243 -0.10752 1.4476 5 1.7768 0. -1
 -15 1 1 2 0 0 -4.44243 0.10752 -1.4476 5 1.7768 0. 1
</event>
<event>
 4 80 1 -1 -1 -1
 11 -1 0 0 0 0 0 0 5 5 0 0. 9.
 -11 -1 0 0 0 0 0 0 -4.93136 4.93136 0 0. 9.
 15 1 1 2 0 0 2.16557 0.298517 4.12346 4.99394 1.7768 0. -1
 -15 1 1 2 0 0 -2.16557 -0.298517 -4.05482 4.93742 1.7768 0. 1
</event>
<event>
 4 80 1 -1 -1 -1
 11 -1 0 0 0 0 0 0 4.98113 4.98113 0 0. 9.
 -11 -1 0 0 0 0 0 0 -5 5 0 0. 9.
 15 1 1 2 0 0 -2.31898 -1.42621 -3.79576 4.99772 1.7768 0. -1
 -15 1 1 2 0 0 2.31898 1.42621 3.77689 4.9834 1.7768 0. 1
</event>
<event>
 4 80 1 -1 -1 -1
 11 -1 0 0 0 0 0 0 5 5 0 0. 9.
 -11 -1 0 0 0 0 0 0 -4.90389 4.90389 0 0. 9.
 15 1 1 2 0 0 -1.53599 -1.17286 4.24669 4.99269 1.7768 0. 1
 -15 1 1 2 0 0 1.53599 1.17286 -4.15058 4.9112 1.7768 0. -1
</event>
<event>
 4 80 1 -1 -1 -1
 11 -1 0 0 0 0 0 0 4.9999 4.9999 0 0. 9.
 -11 -1 0 0 0 0 0 0 -5 5 0 0. 9.
 15 1 1 2 0 0 -0.741383 -4.59274 0.445869 4.99994 1.7768 0. -1
 -15 1 1 2 0 0 0.741383 4.59274 -0.445972 4.99995 1.7768 0. 1
</event>
<event>
 4 80 1 -1 -1 -1
 11 -1 0 0 0 0 0 0 5 5 0 0. 9.
 -11 -1 0 0 0 0 0 0 -3.04106 3.04106 0 0. 9.
 15 1 1 2 0 0 1.41379 2.11481 -1.45532 3.42738 1.7768 0. 1
 -15 1 1 2 0 0 -1.41379 -2.11481 3.41426 4.61369 1.7768 0. -1
</event>
<event>
 4 80 1 -1 -1 -1
 11 -1 0 0 0 0 0 0 5 5 0 0. 9.
 -11 -1 0 0 0 0 0 0 -4.98221 4.98221 0 0. 9.
 15 1 1 2 0 0 -2.05501 -3.84369 -1.65132 4.98814 1.7768 0. -1
 -15 1 1 2 0 0 2.05501 3.84369 1.66911 4.99406 1.7768 0. 1
</event>
<event>
 4 80 1 -1 -1 -1
 11 -1 0 0 0 0 0 0 5 5 0 0. 9.
 -11 -1 0 0 0 0 0 0 -4.94173 4.94173 0 0. 9.
 15 1 1 2 0 0 -1.21242 -1.39038 4.28923 4.99583 1.7768 0. 1
 -15 1 1 2 0 0 1.21242 1.39038 -4.23097 4.9459 1.7768 0. -1
</event>
<event>
 4 80 1 -1 -1 -1
 11 -1 0 0 0 0 0 0 3.63076 3.63076 0 0. 9.
 -11 -1 0 0 0 0 0 0 -5 5 0 0. 9.
 15 1 1 2 0 0 -0.100081 -3.21601 1.49785 3.96914 1.7768 0. 1
 -15 1 1 2 0 0 0.100081 3.21601 -2.86709 4.66162 1.7768 0. -1
</event>
<event>
 4 80 1 -1 -1 -1
 11 -1 0 0 0 0 0 0 4.99999 4.99999 0 0. 9.
 -11 -1 0 0 0 0 0 0 -5 5 0 0. 9.
 15 1 1 2 0 0 1.13075 -2.24452 -3.94028 5 1.7768 0. 1
 -15 1 1 2 0 0 -1.13075 2.24452 3.94026 4.99999 1.7768 0. -1
</event>
<event>
 4 80 1 -1 -1 -1
 11 -1 0 0 0 0 0 0 4.99995 4.99995 0 0. 9.
 -11 -1 0 0 0 0 0 0 -5 5 0 0. 9.
 15 1 1 2 0 0 -4.51918 -1.12524 0.390981 4.99997 1.7768 0. 1
 -15 1 1 2 0 0 4.51918 1.12524 -0.391034 4.99998 1.7768 0. -1
</event>
<event>
 4 80 1 -1 -1 -1
 11 -1 0 0 0 0 0 0 5 5 0 0. 9.
 -11 -1 0 0 0 0 0 0 -5 5 0 0. 9.
 15 1 1 2 0 0 -2.54094 1.49585 3.62606 5 1.7768 0. -1
 -15 1 1 2 0 0 2.54094 -1.49585 -3.62606 5 1.7768 0. 1
</event>
<event>
 4 80 1 -1 -1 -1
 11 -1 0 0 0 0 0 0 4.99736 4.99736 0 0. 9.
 -11 -1 0 0 0 0 0 0 -4.93869 4.93869 0 0. 9.
 15 1 1 2 0 0 2.23595 3.43725 -2.14062 4.95521 1.7768 0. -1
 -15 1 1 2 0 0 -2.23595 -3.43725 2.1993 4.98084 1.7768 0. 1
</event>
<event>
 4 80 1 -1 -1 -1
 11 -1 0 0 0 0 0 0 5 5 0 0. 9.
 -11 -1 0 0 0 0 0 0 -4.99997 4.99997 0 0. 9.
 15 1 1 2 0 0 2.6204 -2.52691 2.93095 4.99999 1.7768 0. -1
 -15 1 1 2 0 0 -2.6204 2.52691 -2.93092 4.99998 1.7768 0. 1
</event>
<event>
 4 80 1 -1 -1 -1
 11 -1 0 0 0 0 0 0 5 5 0 0. 9.
 -11 -1 0 0 0 0 0 0 -1.08294 1.08294 0 0. 9.
 15 1 1 2 0 0 -0.466598 0.223685 0.115044 1.85438 1.7768 0. 1
 -15 1 1 2 0 0 0.466598 -0.223685 3.80201 4.22857 1.7768 0. -1
</event>
<event>
 4 80 1 -1 -1 -1
 11 -1 0 0 0 0 0 0 4.85617 4.85617 0 0. 9.
 -11 -1 0 0 0 0 0 0 -5 5 0 0. 9.
 15 1 1 2 0 0 1.35985 -0.540194 -4.42923 4.99167 1.7768 0. -1
 -15 1 1 2 0 0 -1.35985 0.540194 4.28539 4.8645 1.7768 0. 1
</event>
<event>
 4 80 1 -1 -1 -1
 11 -1 0 0 0 0 0 0 5 5 0 0. 9.
 -11 -1 0 0 0 0 0 0 -4.01154 4.01154 0 0. 9.
 15 1 1 2 0 0 -0.674075 -0.0557868 4.57378 4.95325 1.7768 0. 1
 -15 1 1 2 0 0 0.674075 0.0557868 -3.58532 4.05829 1.7768 0. -1
</event>
<event>
 4 80 1 -1 -1 -1
 11 -1 0 0 0 0 0 0 4.3759 4.3759 0 0. 9.
 -11 -1 0 0 0 0 0 0 -4.99958 4.99958 0 0. 9.
 15 1 1 2 0 0 2.00195 3.73172 0.576896 4.62862 1.7768 0. -1
 -15 1 1 2 0 0 -2.00195 -3.73172 -1.20058 4.74686 1.7768 0. 1
</event>
<event>
 4 80 1 -1 -1 -1
 11 -1 0 0 0 0 0 0 2.9474 2.9474 0 0. 9.
 -11 -1 0 0 0 0 0 0 -4.99886 4.99886 0 0. 9.
 15 1 1 2 0 0 0.310055 -2.93015 0.735127 3.51853 1.7768 0. 1
 -15 1 1 2 0 0 -0.310055 2.93015 -2.78659 4.42772 1.7768 0. -1
</event>
<event>
 4 80 1 -1 -1 -1
 11 -1 0 0 0 0 0 0 4.99957 4.99957 0 0. 9.
 -11 -1 0 0 0 0 0 0 -4.98772 4.98772 0 0. 9.
 15 1 1 2 0 0 2.50018 3.71992 -1.29409 4.99211 1.7768 0. -1
 -15 1 1 2 0 0 -2.50018 -3.71992 1.30594 4.99519 1.7768 0. 1
</event>
<event>
 4 80 1 -1 -1 -1
 11 -1 0 0 0 0 0 0 5 5 0 0. 9.
 -11 -1 0 0 0 0 0 0 -5 5 0 0. 9.
 15 1 1 2 0 0 -0.0282813 1.56261 -4.40451 5 1.7768 0. -1
 -15 1 1 2 0 0 0.0282813 -1.56261 4.40451 5 1.7768 0. 1
</event>
<event>
 4 80 1 -1 -1 -1
 11 -1 0 0 0 0 0 0 5 5 0 0. 9.
 -11 -1 0 0 0 0 0 0 -5 5 0 0. 9.
 15 1 1 2 0 0 -0.460575 1.14856 -4.50677 5 1.7768 0. -1
 -15 1 1 2 0 0 0.460575 -1.14856 4.50677 5 1.7768 0. 1
</event>
<event>
 4 80 1 -1 -1 -1
 11 -1 0 0 0 0 0 0 5 5 0 0. 9.
 -11 -1 0 0 0 0 0 0 -4.9998 4.9998 0 0. 9.
 15 1 1 2 0 0 3.44173 0.20751 -3.1547 4.99984 1.7768 0. 1
 -15 1 1 2 0 0 -3.44173 -0.20751 3.1549 4.99996 1.7768 0. -1
</event>
<event>
 4 80 1 -1 -1 -1
 11 -1 0 0 0 0 0 0 3.72607 3.72607 0 0. 9.
 -11 -1 0 0 0 0 0 0 -4.97058 4.97058 0 0. 9.
 15 1 1 2 0 0 -3.46823 1.81793 -0.448584 4.32348 1.7768 0. 1
 -15 1 1 2 0 0 3.46823 -1.81793 -0.795926 4.37318 1.7768 0. -1
</event>
<event>
 4 80 1 -1 -1 -1
 11 -1 0 0 0 0 0 0 4.85271 4.85271 0 0. 9.
 -11 -1 0 0 0 0 0 0 -5 5 0 0. 9.
 15 1 1 2 0 0 0.523251 4.09472 -2.09013 4.9565 1.7768 0. 1
 -15 1 1 2 0 0 -0.523251 -4.09472 1.94283 4.89621 1.7768 0. -1
</event>
<event>
 4 80 1 -1 -1 -1
 11 -1 0 0 0 0 0 0 5 5 0 0. 9.
 -11 -1 0 0 0 0 0 0 -5 5 0 0. 9.
 15 1 1 2 0 0 -2.0807 4.17663 0.262156 5 1.7768 0. 1
 -15 1 1 2 0 0 2.0807 -4.17663 -0.262156 5 1.7768 0. -1
</event>
<event>
 4 80 1 -1 -1 -1
 11 -1 0 0 0 0 0 0 4.99973 4.99973 0 0. 9.
 -11 -1 0 0 0 0 0 0 -4.99981 4.99981 0 0. 9.
 15 1 1 2 0 0 1.43586 0.741844 4.38493 4.99974 1.7768 0. 1
 -15 1 1 2 0 0 -1.43586 -0.741844 -4.38501 4.99981 1.7768 0. -1
</event>
<event>
 4 80 1 -1 -1 -1
 11 -1 0 0 0 0 0 0 5 5 0 0. 9.
 -11 -1 0 0 0 0 0 0 -5 5 0 0. 9.
 15 1 1 2 0 0 -1.97648 -4.11546 -0.999414 5 1.7768 0. 1
 -15 1 1 2 0 0 1.97648 4.11546 0.999415 5 1.7768 0. -1
</event>
<event>
 4 80 1 -1 -1 -1
 11 -1 0 0 0 0 0 0 5 5 0 0. 9.
 -11 -1 0 0 0 0 0 0 -5 5 0 0. 9.
 15 1 1 2 0 0 0.812718 -3.41166 3.08907 5 1.7768 0. 1
 -15 1 1 2 0 0 -0.812718 3.41166 -3.08907 5 1.7768 0. -1
</event>
<event>
 4 80 1 -1 -1 -1
 11 -1 0 0 0 0 0 0 5 5 0 0. 9.
 -11 -1 0 0 0 0 0 0 -5 5 0 0. 9.
 15 1 1 2 0 0 0.928782 3.41357 -3.05405 5 1.7768 0. 1
 -15 1 1 2 0 0 -0.928782 -3.41357 3.05405 5 1.7768 0. -1
</event>
<event>
 4 80 1 -1 -1 -1
 11 -1 0 0 0 0 0 0 5 5 0 0. 9.
 -11 -1 0 0 0 0 0 0 -5 5 0 0. 9.
 15 1 1 2 0 0 2.52441 1.90501 -3.44102 5 1.7768 0. -1
 -15 1 1 2 0 0 -2.52441 -1.90501 3.44102 5 1.7768 0. 1
</event>
<event>
 4 80 1 -1 -1 -1
 11 -1 0 0 0 0 0 0 5 5 0 0. 9.
 -11 -1 0 0 0 0 0 0 -5 5 0 0. 9.
 15 1 1 2 0 0 0.265476 0.922834 -4.57386 5 1.7768 0. 1
 -15 1 1 2 0 0 -0.265476 -0.922834 4.57386 5 1.7768 0. -1
</event>
<event>
 4 80 1 -1 -1 -1
 11 -1 0 0 0 0 0 0 5 5 0 0. 9.
 -11 -1 0 0 0 0 0 0 -2.05422 2.05422 0 0. 9.
 15 1 1 2 0 0 0.551972 -2.58371 1.87446 3.6948 1.7768 0. 1
 -15 1 1 2 0 0 -0.551972 2.58371 1.07133 3.35942 1.7768 0. -1
</event>
<event>
 4 80 1 -1 -1 -1
 11 -1 0 0 0 0 0 0 5 5 0 0. 9.
 -11 -1 0 0 0 0 0 0 -4.92714 4.92714 0 0. 9.
 15 1 1 2 0 0 1.47401 -1.26152 4.24532 4.99446 1.7768 0. 1
 -15 1 1 2 0 0 -1.47401 1.26152 -4.17246 4.93268 1.7768 0. -1
</event>
<event>
 4 80 1 -1 -1 -1
 11 -1 0 0 0 0 0 0 5 5 0 0. 9.
 -11 -1 0 0 0 0 0 0 -5 5 0 0. 9.
 15 1 1 2 0 0 -0.827125 -0.426147 4.58001 5 1.7768 0. -1
 -15 1 1 2 0 0 0.827125 0.426147 -4.58001 5 1.7768 0. 1
</event>
<event>
 4 80 1 -1 -1 -1
 11 -1 0 0 0 0 0 0 4.20197 4.20197 0 0. 9.
 -11 -1 0 0 0 0 0 0 -4.99999 4.99999 0 0. 9.
 15 1 1 2 0 0 0.840544 3.85895 1.10801 4.47029 1.7768 0. 1
 -15 1 1 2 0 0 -0.840544 -3.85895 -1.90603 4.73167 1.7768 0. -1
</event>
<event>
 4 80 1 -1 -1 -1
 11 -1 0 0 0 0 0 0 5 5 0 0. 9.
 -11 -1 0 0 0 0 0 0 -4.96585 4.96585 0 0. 9.
 15 1 1 2 0 0 2.7431 3.25826 1.89609 4.98936 1.7768 0. 1
 -15 1 1 2 0 0 -2.7431 -3.25826 -1.86194 4.97648 1.7768 0. -1
</event>
<event>
 4 80 1 -1 -1 -1
 11 -1 0 0 0 0 0 0 4.91837 4.91837 0 0. 9.
 -11 -1 0 0 0 0 0 0 -4.99993 4.99993 0 0. 9.
 15 1 1 2 0 0 -1.83838 3.05004 2.9176 4.93482 1.7768 0. -1
 -15 1 1 2 0 0 1.83838 -3.05004 -2.99915 4.98347 1.7768 0. 1
</event>
<event>
 4 80 1 -1 -1 -1
 11 -1 0 0 0 0 0 0 5 5 0 0. 9.
 -11 -1 0 0 0 0 0 0 -3.10586 3.10586 0 0. 9.
 15 1 1 2 0 0 1.26307 -0.0419286 4.32298 4.8418 1.7768 0. 1
 -15 1 1 2 0 0 -1.26307 0.0419286 -2.42884 3.26406 1.7768 0. -1
</event>
<event>
 4 80 1 -1 -1 -1
 11 -1 0 0 0 0 0 0 5 5 0 0. 9.
 -11 -1 0 0 0 0 0 0 -4.99129 4.99129 0 0. 9.
 15 1 1 2 0 0 3.51006 3.07439 0.166713 4.99579 1.7768 0. -1
 -15 1 1 2 0 0 -3.51006 -3.07439 -0.158001 4.9955 1.7768 0. 1
</event>
<event>
 4 80 1 -1 -1 -1
 11 -1 0 0 0 0 0 0 4.99929 4.99929 0 0. 9.
 -11 -1 0 0 0 0 0 0 -5 5 0 0. 9.
 15 1 1 2 0 0 1.42034 -0.940387 4.35131 4.99933 1.7768 0. -1
 -15 1 1 2 0 0 -1.42034 0.940387 -4.35202 4.99995 1.7768 0. 1
</event>
<event>
 4 80 1 -1 -1 -1
 11 -1 0 0 0 0 0 0 4.99998 4.99998 0 0. 9.
 -11 -1 0 0 0 0 0 0 -4.82716 4.82716 0 0. 9.
 15 1 1 2 0 0 -0.220496 -1.94001 -4.05738 4.8407 1.7768 0. -1
 -15 1 1 2 0 0 0.220496 1.94001 4.23021 4.98645 1.7768 0. 1
</event>
<event>
 4 80 1 -1 -1 -1
 11 -1 0 0 0 0 0 0 4.66517 4.66517 0 0. 9.
 -11 -1 0 0 0 0 0 0 -4.999 4.999 0 0. 9.
 15 1 1 2 0 0 2.4677 1.62854 -3.54853 4.94889 1.7768 0. -1
 -15 1 1 2 0 0 -2.4677 -1.62854 3.21471 4.71527 1.7768 0. 1
</event>
<event>
 4 80 1 -1 -1 -1
 11 -1 0 0 0 0 0 0 5 5 0 0. 9.
 -11 -1 0 0 0 0 0 0 -5 5 0 0. 9.
 15 1 1 2 0 0 -2.5212 2.7223 -2.84163 5 1.7768 0. -1
 -15 1 1 2 0 0 2.5212 -2.7223 2.84163 5 1.7768 0. 1
</event>
<event>
 4 80 1 -1 -1 -1
 11 -1 0 0 0 0 0 0 4.98056 4.98056 0 0. 9.
 -11 -1 0 0 0 0 0 0 -3.53474 3.53474 0 0. 9.
 15 1 1 2 0 0 -0.217092 0.826741 -3.03526 3.61955 1.7768 0. -1
 -15 1 1 2 0 0 0.217092 -0.826741 4.48107 4.89575 1.7768 0. 1
</event>
<event>
 4 80 1 -1 -1 -1
 11 -1 0 0 0 0 0 0 4.48336 4.48336 0 0. 9.
 -11 -1 0 0 0 0 0 0 -5 5 0 0. 9.
 15 1 1 2 0 0 1.19153 0.706147 3.91209 4.51448 1.7768 0. -1
 -15 1 1 2 0 0 -1.19153 -0.706147 -4.42873 4.96888 1.7768 0. 1
</event>
<event>
 4 80 1 -1 -1 -1
 11 -1 0 0 0 0 0 0 4.99994 4.99994 0 0. 9.
 -11 -1 0 0 0 0 0 0 -4.99996 4.99996 0 0. 9.
 15 1 1 2 0 0 2.02613 4.1878 -0.445987 4.99995 1.7768 0. 1
 -15 1 1 2 0 0 -2.02613 -4.1878 0.445971 4.99995 1.7768 0. -1
</event>
<event>
 4 80 1 -1 -1 -1
 11 -1 0 0 0 0 0 0 5 5 0 0. 9.
 -11 -1 0 0 0 0 0 0 -5 5 0 0. 9.
 15 1 1 2 0 0 -0.299954 -3.15381 -3.43595 5 1.7768 0. -1
 -15 1 1 2 0 0 0.299954 3.15381 3.43595 5 1.7768 0. 1
</event>
<event>
 4 80 1 -1 -1 -1
 11 -1 0 0 0 0 0 0 5 5 0 0. 9.
 -11 -1 0 0 0 0 0 0 -4.91268 4.91268 0 0. 9.
 15 1 1 2 0 0 -2.71463 1.74295 3.3602 4.98556 1.7768 0. 1
 -15 1 1 2 0 0 2.71463 -1.74295 -3.27288 4.92713 1.7768 0. -1
</event>
<event>
 4 80 1 -1 -1 -1
 11 -1 0 0 0 0 0 0 1.13628 1.13628 0 0. 9.
 -11 -1 0 0 0 0 0 0 -5 5 0 0. 9.
 15 1 1 2 0 0 -1.21399 -0.265802 -0.658088 2.26611 1.7768 0. 1
 -15 1 1 2 0 0 1.21399 0.265802 -3.20563 3.87017 1.7768 0. -1
</event>
<event>
 4 80 1 -1 -1 -1
 11 -1 0 0 0 0 0 0 4.99999 4.99999 0 0. 9.
 -11 -1 0 0 0 0 0 0 -5 5 0 0. 9.
 15 1 1 2 0 0 -2.33445 2.73439 -2.98591 5 1.7768 0. 1
 -15 1 1 2 0 0 2.33445 -2.73439 2.9859 4.99999 1.7768 0. -1
</event>
<event>
 4 80 1 -1 -1 -1
 11 -1 0 0 0 0 0 0 5 5 0 0. 9.
 -11 -1 0 0 0 0 0 0 -4.99506 4.99506 0 0. 9.
 15 1 1 2 0 0 -0.939789 1.75239 4.22899 4.99962 1.7768 0. 1
 -15 1 1 2 0 0 0.939789 -1.75239 -4.22405 4.99544 1.7768 0. -1
</event>
<event>
 4 80 1 -1 -1 -1
 11 -1 0 0 0 0 0 0 4.99926 4.99926 0 0. 9.
 -11 -1 0 0 0 0 0 0 -5 5 0 0. 9.
 15 1 1 2 0 0 -0.946608 -0.589574 -4.53853 4.99997 1.7768 0. 1
 -15 1 1 2 0 0 0.946608 0.589574 4.53779 4.9993 1.7768 0. -1
</event>
<event>
 4 80 1 -1 -1 -1
 11 -1 0 0 0 0 0 0 4.99833 4.99833 0 0. 9.
 -11 -1 0 0 0 0 0 0 -5 5 0 0. 9.
 15 1 1 2 0 0 -4.2833 0.0937892 -1.86589 4.99948 1.7768 0. -1
 -15 1 1 2 0 0 4.2833 -0.0937892 1.86422 4.99885 1.7768 0. 1
</event>
<event>
 4 80 1 -1 -1 -1
 11 -1 0 0 0 0 0 0 5 5 0 0. 9.
 -11 -1 0 0 0 0 0 0 -4.97633 4.97633 0 0. 9.
 15 1 1 2 0 0 1.13986 -0.521763 -4.47732 4.97751 1.7768 0. -1
 -15 1 1 2 0 0 -1.13986 0.521763 4.50099 4.99881 1.7768 0. 1
</event>
<event>
 4 80 1 -1 -1 -1
 11 -1 0 0 0 0 0 0 5 5 0 0. 9.
 -11 -1 0 0 0 0 0 0 -5 5 0 0. 9.
 15 1 1 2 0 0 2.04329 -2.59268 -3.30836 5 1.7768 0. -1
 -15 1 1 2 0 0 -2.04329 2.59268 3.30836 5 1.7768 0. 1
</event>
<event>
 4 80 1 -1 -1 -1
 11 -1 0 0 0 0 0 0 5 5 0 0. 9.
 -11 -1 0 0 0 0 0 0 -5 5 0 0. 9.
 15 1 1 2 0 0 3.6953 -2.36106 1.61631 5 1.7768 0. 1
 -15 1 1 2 0 0 -3.6953 2.36106 -1.61631 5 1.7768 0. -1
</event>
<event>
 4 80 1 -1 -1 -1
 11 -1 0 0 0 0 0 0 4.98267 4.98267 0 0. 9.
 -11 -1 0 0 0 0 0 0 -3.19162 3.19162 0 0. 9.
 15 1 1 2 0 0 -2.86749 -1.15434 -0.935025 3.68606 1.7768 0. -1
 -15 1 1 2 0 0 2.86749 1.15434 2.72607 4.48823 1.7768 0. 1
</event>
<event>
 4 80 1 -1 -1 -1
 11 -1 0 0 0 0 0 0 4.99999 4.99999 0 0. 9.
 -11 -1 0 0 0 0 0 0 -5 5 0 0. 9.
 15 1 1 2 0 0 -2.20842 -3.38472 2.34707 5 1.7768 0. -1
 -15 1 1 2 0 0 2.20842 3.38472 -2.34708 5 1.7768 0. 1
</event>
<event>
 4 80 1 -1 -1 -1
 11 -1 0 0 0 0 0 0 5 5 0 0. 9.
 -11 -1 0 0 0 0 0 0 -5 5 0 0. 9.
 15 1 1 2 0 0 1.97096 1.38168 4.00606 5 1.7768 0. -1
 -15 1 1 2 0 0 -1.97096 -1.38168 -4.00606 5 1.7768 0. 1
</event>
<event>
 4 80 1 -1 -1 -1
 11 -1 0 0 0 0 0 0 5 5 0 0. 9.
 -11 -1 0 0 0 0 0 0 -4.99998 4.99998 0 0. 9.
 15 1 1 2 0 0 -1.9396 3.06299 -2.94927 4.99998 1.7768 0. 1
 -15 1 1 2 0 0 1.9396 -3.06299 2.94929 5 1.7768 0. -1
</event>
<event>
 4 80 1 -1 -1 -1
 11 -1 0 0 0 0 0 0 5 5 0 0. 9.
 -11 -1 0 0 0 0 0 0 -4.81785 4.81785 0 0. 9.
 15 1 1 2 0 0 -1.88678 4.14384 0.538569 4.91723 1.7768 0. -1
 -15 1 1 2 0 0 1.88678 -4.14384 -0.356415 4.90062 1.7768 0. 1
</event>
<event>
 4 80 1 -1 -1 -1
 11 -1 0 0 0 0 0 0 5 5 0 0. 9.
 -11 -1 0 0 0 0 0 0 -5 5 0 0. 9.
 15 1 1 2 0 0 -0.218258 -3.29224 3.30995 5 1.7768 0. -1
 -15 1 1 2 0 0 0.218258 3.29224 -3.30995 5 1.7768 0. 1
</event>
<event>
 4 80 1 -1 -1 -1
 11 -1 0 0 0 0 0 0 1.51256 1.51256 0 0. 9.
 -11 -1 0 0 0 0 0 0 -5 5 0 0. 9.
 15 1 1 2 0 0 -0.714998 -1.97035 -1.61641 3.1881 1.7768 0. -1
 -15 1 1 2 0 0 0.714998 1.97035 -1.87104 3.32445 1.7768 0. 1
</event>
<event>
 4 80 1 -1 -1 -1
 11 -1 0 0 0 0 0 0 5 5 0 0. 9.
 -11 -1 0 0 0 0 0 0 -5 5 0 0. 9.
 15 1 1 2 0 0 0.219008 -3.53393 3.05051 5 1.7768 0. -1
 -15 1 1 2 0 0 -0.219008 3.53393 -3.05051 5 1.7768 0. 1
</event>
<event>
 4 80 1 -1 -1 -1
 11 -1 0 0 0 0 0 0 4.99996 4.99996 0 0. 9.
 -11 -1 0 0 0 0 0 0 -5 5 0 0. 9.
 15 1 1 2 0 0 -4.05646 -0.541738 2.25691 4.99997 1.7768 0. -1
 -15 1 1 2 0 0 4.05646 0.541738 -2.25695 4.99999 1.7768 0. 1
</event>
<event>
 4 80 1 -1 -1 -1
 11 -1 0 0 0 0 0 0 5 5 0 0. 9.
 -11 -1 0 0 0 0 0 0 -5 5 0 0. 9.
 15 1 1 2 0 0 -1.05572 3.17645 -3.26158 5 1.7768 0. 1
 -15 1 1 2 0 0 1.05572 -3.17645 3.26158 5 1.7768 0. -1
</event>
<event>
 4 80 1 -1 -1 -1
 11 -1 0 0 0 0 0 0 5 5 0 0. 9.
 -11 -1 0 0 0 0 0 0 -4.99992 4.99992 0 0. 9.
 15 1 1 2 0 0 -4.23243 1.82103 0.782542 4.99997 1.7768 0. -1
 -15 1 1 2 0 0 4.23243 -1.82103 -0.782464 4.99995 1.7768 0. 1
</event>
<event>
 4 80 1 -1 -1 -1
 11 -1 0 0 0 0 0 0 5 5 0 0. 9.
 -11 -1 0 0 0 0 0 0 -1.41857 1.41857 0 0. 9.
 15 1 1 2 0 0 0.986274 0.625881 -0.14135 2.13124 1.7768 0. -1
 -15 1 1 2 0 0 -0.986274 -0.625881 3.72277 4.28734 1.7768 0. 1
</event>
<event>
 4 80 1 -1 -1 -1
 11 -1 0 0 0 0 0 0 5 5 0 0. 9.
 -11 -1 0 0 0 0 0 0 -5 5 0 0. 9.
 15 1 1 2 0 0 -2.71267 -3.69234 0.922133 5 1.7768 0. 1
 -15 1 1 2 0 0 2.71267 3.69234 -0.922133 5 1.7768 0. -1
</event>
<event>
 4 80 1 -1 -1 -1
 11 -1 0 0 0 0 0 0 5 5 0 0. 9.
 -11 -1 0 0 0 0 0 0 -4.87183 4.87183 0 0. 9.
 15 1 1 2 0 0 3.30654 3.12473 0.774266 4.94514 1.7768 0. -1
 -15 1 1 2 0 0 -3.30654 -3.12473 -0.646098 4.9267 1.7768 0. 1
</event>
<event>
 4 80 1 -1 -1 -1
 11 -1 0 0 0 0 0 0 4.9998 4.9998 0 0. 9.
 -11 -1 0 0 0 0 0 0 -4.99963 4.99963 0 0. 9.
 15 1 1 2 0 0 -1.70159 -4.34821 -0.192335 4.99971 1.7768 0. 1
 -15 1 1 2 0 0 1.70159 4.34821 0.192505 4.99972 1.7768 0. -1
</event>
<event>
 4 80 1 -1 -1 -1
 11 -1 0 0 0 0 0 0 5 5 0 0. 9.
 -11 -1 0 0 0 0 0 0 -5 5 0 0. 9.
 15 1 1 2 0 0 -0.66591 4.61266 -0.34963 5 1.7768 0. 1
 -15 1 1 2 0 0 0.66591 -4.61266 0.34963 5 1.7768 0. -1
</event>
<event>
 4 80 1 -1 -1 -1
 11 -1 0 0 0 0 0 0 4.8919 4.8919 0 0. 9.
 -11 -1 0 0 0 0 0 0 -5 5 0 0. 9.
 15 1 1 2 0 0 -3.83974 0.900142 2.34357 4.91975 1.7768 0. 1
 -15 1 1 2 0 0 3.83974 -0.900142 -2.45167 4.97215 1.7768 0. -1
</event>
<event>
 4 80 1 -1 -1 -1
 11 -1 0 0 0 0 0 0 1.69314 1.69314 0 0. 9.
 -11 -1 0 0 0 0 0 0 -4.93107 4.93107 0 0. 9.
 15 1 1 2 0 0 0.00340433 2.27265 -1.80487 3.40298 1.7768 0. 1
 -15 1 1 2 0 0 -0.00340433 -2.27265 -1.43305 3.22123 1.7768 0. -1
</event>
<event>
 4 80 1 -1 -1 -1
 11 -1 0 0 0 0 0 0 4.99983 4.99983 0 0. 9.
 -11 -1 0 0 0 0 0 0 -5 5 0 0. 9.
 15 1 1 2 0 0 0.79156 2.77349 -3.6774 4.99998 1.7768 0. -1
 -15 1 1 2 0 0 -0.79156 -2.77349 3.67723 4.99985 1.7768 0. 1
</event>
<event>
 4 80 1 -1 -1 -1
 11 -1 0 0 0 0 0 0 5 5 0 0. 9.
 -11 -1 0 0 0 0 0 0 -5 5 0 0. 9.
 15 1 1 2 0 0 3.82016 2.6739 -0.314498 5 1.7768 0. 1
 -15 1 1 2 0 0 -3.82016 -2.6739 0.314498 5 1.7768 0. -1
</event>
<event>
 4 80 1 -1 -1 -1
 11 -1 0 0 0 0 0 0 5 5 0 0. 9.
 -11 -1 0 0 0 0 0 0 -4.85984 4.85984 0 0. 9.
 15 1 1 2 0 0 -0.250883 2.87827 3.64733 4.98077 1.7768 0. 1
 -15 1 1 2 0 0 0.250883 -2.87827 -3.50717 4.87907 1.7768 0. -1
</event>
<event>
 4 80 1 -1 -1 -1
 11 -1 0 0 0 0 0 0 4.98619 4.98619 0 0. 9.
 -11 -1 0 0 0 0 0 0 -5 5 0 0. 9.
 15 1 1 2 0 0 -3.99142 -1.12475 -2.14624 4.99605 1.7768 0. -1
 -15 1 1 2 0 0 3.99142 1.12475 2.13243 4.99013 1.7768 0. 1
</event>
<event>
 4 80 1 -1 -1 -1
 11 -1 0 0 0 0 0 0 5 5 0 0. 9.
 -11 -1 0 0 0 0 0 0 -4.99872 4.99872 0 0. 9.
 15 1 1 2 0 0 -0.0357963 -2.54753 -3.91658 4.99886 1.7768 0. -1
 -15 1 1 2 0 0 0.0357963 2.54753 3.91787 4.99986 1.7768 0. 1
</event>
<event>
 4 80 1 -1 -1 -1
 11 -1 0 0 0 0 0 0 5 5 0 0. 9.
 -11 -1 0 0 0 0 0 0 -5 5 0 0. 9.
 15 1 1 2 0 0 -1.88926 2.62467 3.37403 5 1.7768 0. 1
 -15 1 1 2 0 0 1.88926 -2.62467 -3.37403 5 1.7768 0. -1
</event>
<event>
 4 80 1 -1 -1 -1
 11 -1 0 0 0 0 0 0 4.99592 4.99592 0 0. 9.
 -11 -1 0 0 0 0 0 0 -5 5 0 0. 9.
 15 1 1 2 0 0 0.0188837 4.49352 -1.27867 4.99848 1.7768 0. -1
 -15 1 1 2 0 0 -0.0188837 -4.49352 1.27459 4.99744 1.7768 0. 1
</event>
<event>
 4 80 1 -1 -1 -1
 11 -1 0 0 0 0 0 0 4.87475 4.87475 0 0. 9.
 -11 -1 0 0 0 0 0 0 -5 5 0 0. 9.
 15 1 1 2 0 0 -3.69246 0.442945 -2.78048 4.97185 1.7768 0. 1
 -15 1 1 2 0 0 3.69246 -0.442945 2.65524 4.90291 1.7768 0. -1
</event>
<event>
 4 80 1 -1 -1 -1
 11 -1 0 0 0 0 0 0 4.99991 4.99991 0 0. 9.
 -11 -1 0 0 0 0 0 0 -5 5 0 0. 9.
 15 1 1 2 0 0 2.93178 -2.83514 2.28216 4.99993 1.7768 0. 1
 -15 1 1 2 0 0 -2.93178 2.83514 -2.28226 4.99997 1.7768 0. -1
</event>
<event>
 4 80 1 -1 -1 -1
 11 -1 0 0 0 0 0 0 4.87509 4.87509 0 0. 9.
 -11 -1 0 0 0 0 0 0 -5 5 0 0. 9.
 15 1 1 2 0 0 2.03099 2.46257 3.25874 4.89554 1.7768 0. 1
 -15 1 1 2 0 0 -2.03099 -2.46257 -3.38365 4.97956 1.7768 0. -1
</event>
<event>
 4 80 1 -1 -1 -1
 11 -1 0 0 0 0 0 0 5 5 0 0. 9.
 -11 -1 0 0 0 0 0 0 -4.2801 4.2801 0 0. 9.
 15 1 1 2 0 0 3.22553 0.892218 -2.30187 4.43356 1.7768 0. 1
 -15 1 1 2 0 0 -3.22553 -0.892218 3.02177 4.84654 1.7768 0. -1
</event>
<event>
 4 80 1 -1 -1 -1
 11 -1 0 0 0 0 0 0 0.842549 0.842549 0 0. 9.
 -11 -1 0 0 0 0 0 0 -5 5 0 0. 9.
 15 1 1 2 0 0 0.369117 0.633067 -1.05437 2.19236 1.7768 0. 1
 -15 1 1 2 0 0 -0.369117 -0.633067 -3.10308 3.65019 1.7768 0. -1
</event>
<event>
 4 80 1 -1 -1 -1
 11 -1 0 0 0 0 0 0 5 5 0 0. 9.
 -11 -1 0 0 0 0 0 0 -5 5 0 0. 9.
 15 1 1 2 0 0 3.58247 1.4927 2.60384 5 1.7768 0. 1
 -15 1 1 2 0 0 -3.58247 -1.4927 -2.60384 5 1.7768 0. -1
</event>
<event>
 4 80 1 -1 -1 -1
 11 -1 0 0 0 0 0 0 5 5 0 0. 9.
 -11 -1 0 0 0 0 0 0 -5 5 0 0. 9.
 15 1 1 2 0 0 1.53342 -3.19014 -3.05187 5 1.7768 0. 1
 -15 1 1 2 0 0 -1.53342 3.19014 3.05187 5 1.7768 0. -1
</event>
<event>
 4 80 1 -1 -1 -1
 11 -1 0 0 0 0 0 0 4.99636 4.99636 0 0. 9.
 -11 -1 0 0 0 0 0 0 -5 5 0 0. 9.
 15 1 1 2 0 0 -0.212548 0.959834 4.56519 4.99652 1.7768 0. 1
 -15 1 1 2 0 0 0.212548 -0.959834 -4.56883 4.99984 1.7768 0. -1
</event>
<event>
 4 80 1 -1 -1 -1
 11 -1 0 0 0 0 0 0 1.48414 1.48414 0 0. 9.
 -11 -1 0 0 0 0 0 0 -5 5 0 0. 9.
 15 1 1 2 0 0 0.798958 -1.59985 -2.98622 3.90808 1.7768 0. 1
 -15 1 1 2 0 0 -0.798958 1.59985 -0.529635 2.57606 1.7768 0. -1
</event>
<event>
 4 80 1 -1 -1 -1
 11 -1 0 0 0 0 0 0 5 5 0 0. 9.
 -11 -1 0 0 0 0 0 0 -2.98968 2.98968 0 0. 9.
 15 1 1 2 0 0 1.01975 -0.722208 -2.29947 3.16335 1.7768 0. -1
 -15 1 1 2 0 0 -1.01975 0.722208 4.30979 4.82633 1.7768 0. 1
</event>
<event>
 4 80 1 -1 -1 -1
 11 -1 0 0 0 0 0 0 5 5 0 0. 9.
 -11 -1 0 0 0 0 0 0 -5 5 0 0. 9.
 15 1 1 2 0 0 1.76356 -0.799059 -4.25366 5 1.7768 0. -1
 -15 1 1 2 0 0 -1.76356 0.799059 4.25366 5 1.7768 0. 1
</event>
<event>
 4 80 1 -1 -1 -1
 11 -1 0 0 0 0 0 0 5 5 0 0. 9.
 -11 -1 0 0 0 0 0 0 -4.99264 4.99264 0 0. 9.
 15 1 1 2 0 0 -2.25539 -0.440151 -4.06142 4.99333 1.7768 0. 1
 -15 1 1 2 0 0 2.25539 0.440151 4.06877 4.99931 1.7768 0. -1
</event>
<event>
 4 80 1 -1 -1 -1
 11 -1 0 0 0 0 0 0 4.99773 4.99773 0 0. 9.
 -11 -1 0 0 0 0 0 0 -5 5 0 0. 9.
 15 1 1 2 0 0 4.51004 -0.0396402 1.21906 4.99859 1.7768 0. 1
 -15 1 1 2 0 0 -4.51004 0.0396402 -1.22132 4.99914 1.7768 0. -1
</event>
<event>
 4 80 1 -1 -1 -1
 11 -1 0 0 0 0 0 0 4.99991 4.99991 0 0. 9.
 -11 -1 0 0 0 0 0 0 -4.38527 4.38527 0 0. 9.
 15 1 1 2 0 0 4.28943 0.600728 0.397702 4.69851 1.7768 0. 1
 -15 1 1 2 0 0 -4.28943 -0.600728 0.216946 4.68667 1.7768 0. -1
</event>
<event>
 4 80 1 -1 -1 -1
 11 -1 0 0 0 0 0 0 4.99999 4.99999 0 0. 9.
 -11 -1 0 0 0 0 0 0 -4.99667 4.99667 0 0. 9.
 15 1 1 2 0 0 -4.59365 -0.358834 -0.769815 4.99808 1.7768 0. -1
 -15 1 1 2 0 0 4.59365 0.358834 0.773137 4.99859 1.7768 0. 1
</event>
<event>
 4 80 1 -1 -1 -1
 11 -1 0 0 0 0 0 0 4.99972 4.99972 0 0. 9.
 -11 -1 0 0 0 0 0 0 -5 5 0 0. 9.
 15 1 1 2 0 0 0.915051 2.94744 3.5093 4.99977 1.7768 0. 1
 -15 1 1 2 0 0 -0.915051 -2.94744 -3.50958 4.99996 1.7768 0. -1
</event>
<event>
 4 80 1 -1 -1 -1
 11 -1 0 0 0 0 0 0 5 5 0 0. 9.
 -11 -1 0 0 0 0 0 0 -4.99983 4.99983 0 0. 9.
 15 1 1 2 0 0 -2.54773 -1.58108 -3.5847 4.99985 1.7768 0. 1
 -15 1 1 2 0 0 2.54773 1.58108 3.58487 4.99998 1.7768 0. -1
</event>
<event>
 4 80 1 -1 -1 -1
 11 -1 0 0 0 0 0 0 4.99998 4.99998 0 0. 9.
 -11 -1 0 0 0 0 0 0 -5 5 0 0. 9.
 15 1 1 2 0 0 -2.34172 -2.67575 -3.03298 5 1.7768 0. -1
 -15 1 1 2 0 0 2.34172 2.67575 3.03297 4.99999 1.7768 0. 1
</event>
<event>
 4 80 1 -1 -1 -1
 11 -1 0 0 0 0 0 0 5 5 0 0. 9.
 -11 -1 0 0 0 0 0 0 -5 5 0 0. 9.
 15 1 1 2 0 0 1.05015 2.30905 3.92527 5 1.7768 0. -1
 -15 1 1 2 0 0 -1.05015 -2.30905 -3.92527 5 1.7768 0. 1
</event>
<event>
 4 80 1 -1 -1 -1
 11 -1 0 0 0 0 0 0 4.99989 4.99989 0 0. 9.
 -11 -1 0 0 0 0 0 0 -4.99978 4.99978 0 0. 9.
 15 1 1 2 0 0 -2.87259 1.39129 3.41373 4.99988 1.7768 0. -1
 -15 1 1 2 0 0 2.87259 -1.39129 -3.41362 4.9998 1.7768 0. 1
</event>
<event>
 4 80 1 -1 -1 -1
 11 -1 0 0 0 0 0 0 5 5 0 0. 9.
 -11 -1 0 0 0 0 0 0 -5 5 0 0. 9.
 15 1 1 2 0 0 -0.429996 -3.28896 -3.29243 5 1.7768 0. -1
 -15 1 1 2 0 0 0.429996 3.28896 3.29243 5 1.7768 0. 1
</event>
<event>
 4 80 1 -1 -1 -1
 11 -1 0 0 0 0 0 0 5 5 0 0. 9.
 -11 -1 0 0 0 0 0 0 -5 5 0 0. 9.
 15 1 1 2 0 0 -0.658476 -1.69562 -4.30506 5 1.7768 0. 1
 -15 1 1 2 0 0 0.658476 1.69562 4.30506 5 1.7768 0. -1
</event>
<event>
 4 80 1 -1 -1 -1
 11 -1 0 0 0 0 0 0 3.33172 3.33172 0 0. 9.
 -11 -1 0 0 0 0 0 0 -5 5 0 0. 9.
 15 1 1 2 0 0 0.244822 3.51057 -1.91278 4.38184 1.7768 0. -1
 -15 1 1 2 0 0 -0.244822 -3.51057 0.244493 3.94988 1.7768 0. 1
</event>
<event>
 4 80 1 -1 -1 -1
 11 -1 0 0 0 0 0 0 5 5 0 0. 9.
 -11 -1 0 0 0 0 0 0 -4.99998 4.99998 0 0. 9.
 15 1 1 2 0 0 -0.293842 -0.574903 4.62876 5 1.7768 0. -1
 -15 1 1 2 0 0 0.293842 0.574903 -4.62874 4.99998 1.7768 0. 1
</event>
<event>
 4 80 1 -1 -1 -1
 11 -1 0 0 0 0 0 0 5 5 0 0. 9.
 -11 -1 0 0 0 0 0 0 -4.76982 4.76982 0 0. 9.
 15 1 1 2 0 0 0.897924 1.92672 -3.90757 4.79013 1.7768 0. -1
 -15 1 1 2 0 0 -0.897924 -1.92672 4.13775 4.97969 1.7768 0. 1
</event>
<event>
 4 80 1 -1 -1 -1
 11 -1 0 0 0 0 0 0 4.99999 4.99999 0 0. 9.
 -11 -1 0 0 0 0 0 0 -4.35472 4.35472 0 0. 9.
 15 1 1 2 0 0 -0.347419 4.24443 1.01704 4.72525 1.7768 0. 1
 -15 1 1 2 0 0 0.347419 -4.24443 -0.371771 4.62946 1.7768 0. -1
</event>
<event>
 4 80 1 -1 -1 -1
 11 -1 0 0 0 0 0 0 5 5 0 0. 9.
 -11 -1 0 0 0 0 0 0 -5 5 0 0. 9.
 15 1 1 2 0 0 -0.301536 -3.03565 -3.54064 5 1.7768 0. -1
 -15 1 1 2 0 0 0.301536 3.03565 3.54064 5 1.7768 0. 1
</event>
<event>
 4 80 1 -1 -1 -1
 11 -1 0 0 0 0 0 0 2.27975 2.27975 0 0. 9.
 -11 -1 0 0 0 0 0 0 -4.99964 4.99964 0 0. 9.
 15 1 1 2 0 0 0.0932342 2.15468 -3.4023 4.40281 1.7768 0. 1
 -15 1 1 2 0 0 -0.0932342 -2.15468 0.682414 2.87659 1.7768 0. -1
</event>
<event>
 4 80 1 -1 -1 -1
 11 -1 0 0 0 0 0 0 5 5 0 0. 9.
 -11 -1 0 0 0 0 0 0 -5 5 0 0. 9.
 15 1 1 2 0 0 0.448507 -4.23386 -1.92756 5 1.7768 0. -1
 -15 1 1 2 0 0 -0.448507 4.23386 1.92756 5 1.7768 0. 1
</event>
<event>
 4 80 1 -1 -1 -1
 11 -1 0 0 0 0 0 0 5 5 0 0. 9.
 -11 -1 0 0 0 0 0 0 -4.54234 4.54234 0 0. 9.
 15 1 1 2 0 0 -3.4038 0.548644 -2.54332 4.63822 1.7768 0. 1
 -15 1 1 2 0 0 3.4038 -0.548644 3.00098 4.90413 1.7768 0. -1
</event>
<event>
 4 80 1 -1 -1 -1
 11 -1 0 0 0 0 0 0 2.98815 2.98815 0 0. 9.
 -11 -1 0 0 0 0 0 0 -4.97986 4.97986 0 0. 9.
 15 1 1 2 0 0 2.72121 1.82872 0.0232225 3.72928 1.7768 0. -1
 -15 1 1 2 0 0 -2.72121 -1.82872 -2.01493 4.23874 1.7768 0. 1
</event>
<event>
 4 80 1 -1 -1 -1
 11 -1 0 0 0 0 0 0 5 5 0 0. 9.
 -11 -1 0 0 0 0 0 0 -5 5 0 0. 9.
 15 1 1 2 0 0 3.05385 1.88648 2.9929 5 1.7768 0. -1
 -15 1 1 2 0 0 -3.05385 -1.88648 -2.9929 5 1.7768 0. 1
</event>
<event>
 4 80 1 -1 -1 -1
 11 -1 0 0 0 0 0 0 5 5 0 0. 9.
 -11 -1 0 0 0 0 0 0 -5 5 0 0. 9.
 15 1 1 2 0 0 1.83738 3.07227 -3.00458 5 1.7768 0. -1
 -15 1 1 2 0 0 -1.83738 -3.07227 3.00458 5 1.7768 0. 1
</event>
<event>
 4 80 1 -1 -1 -1
 11 -1 0 0 0 0 0 0 4.97879 4.97879 0 0. 9.
 -11 -1 0 0 0 0 0 0 -4.83317 4.83317 0 0. 9.
 15 1 1 2 0 0 -0.502036 0.388021 4.60134 4.97319 1.7768 0. 1
 -15 1 1 2 0 0 0.502036 -0.388021 -4.45572 4.83877 1.7768 0. -1
</event>
<event>
 4 80 1 -1 -1 -1
 11 -1 0 0 0 0 0 0 5 5 0 0. 9.
 -11 -1 0 0 0 0 0 0 -5 5 0 0. 9.
 15 1 1 2 0 0 -3.63877 -2.79381 -0.892356 5 1.7768 0. 1
 -15 1 1 2 0 0 3.63877 2.79381 0.892356 5 1.7768 0. -1
</event>
<event>
 4 80 1 -1 -1 -1
 11 -1 0 0 0 0 0 0 4.99988 4.99988 0 0. 9.
 -11 -1 0 0 0 0 0 0 -5 5 0 0. 9.
 15 1 1 2 0 0 4.26938 -1.41218 -1.27279 4.99995 1.7768 0. -1
 -15 1 1 2 0 0 -4.26938 1.41218 1.27267 4.99992 1.7768 0. 1
</event>
<event>
 4 80 1 -1 -1 -1
 11 -1 0 0 0 0 0 0 5 5 0 0. 9.
 -11 -1 0 0 0 0 0 0 -4.99997 4.99997 0 0. 9.
 15 1 1 2 0 0 -0.272682 1.22782 -4.50112 4.99997 1.7768 0. 1
 -15 1 1 2 0 0 0.272682 -1.22782 4.50115 5 1.7768 0. -1
</event>
<event>
 4 80 1 -1 -1 -1
 11 -1 0 0 0 0 0 0 4.84125 4.84125 0 0. 9.
 -11 -1 0 0 0 0 0 0 -1.64424 1.64424 0 0. 9.
 15 1 1 2 0 0 1.82118 0.710707 0.460344 2.68169 1.7768 0. 1
 -15 1 1 2 0 0 -1.82118 -0.710707 2.73666 3.8038 1.7768 0. -1
</event>
<event>
 4 80 1 -1 -1 -1
 11 -1 0 0 0 0 0 0 5 5 0 0. 9.
 -11 -1 0 0 0 0 0 0 -4.99999 4.99999 0 0. 9.
 15 1 1 2 0 0 0.863158 4.47673 -1.02763 4.99999 1.7768 0. -1
 -15 1 1 2 0 0 -0.863158 -4.47673 1.02764 5 1.7768 0. 1
</event>
<event>
 4 80 1 -1 -1 -1
 11 -1 0 0 0 0 0 0 4.99997 4.99997 0 0. 9.
 -11 -1 0 0 0 0 0 0 -4.99559 4.99559 0 0. 9.
 15 1 1 2 0 0 2.4379 -2.87468 -2.75695 4.99657 1.7768 0. 1
 -15 1 1 2 0 0 -2.4379 2.87468 2.76134 4.99899 1.7768 0. -1
</event>
<event>
 4 80 1 -1 -1 -1
 11 -1 0 0 0 0 0 0 5 5 0 0. 9.
 -11 -1 0 0 0 0 0 0 -5 5 0 0. 9.
 15 1 1 2 0 0 -2.34893 0.113643 -4.03879 5 1.7768 0. -1
 -15 1 1 2 0 0 2.34893 -0.113643 4.03879 5 1.7768 0. 1
</event>
<event>
 4 80 1 -1 -1 -1
 11 -1 0 0 0 0 0 0 5 5 0 0. 9.
 -11 -1 0 0 0 0 0 0 -5 5 0 0. 9.
 15 1 1 2 0 0 2.33733 -2.57344 -3.12355 5 1.7768 0. -1
 -15 1 1 2 0 0 -2.33733 2.57344 3.12355 5 1.7768 0. 1
</event>
<event>
 4 80 1 -1 -1 -1
 11 -1 0 0 0 0 0 0 4.99096 4.99096 0 0. 9.
 -11 -1 0 0 0 0 0 0 -4.99991 4.99991 0 0. 9.
 15 1 1 2 0 0 -2.65854 3.07877 2.28681 4.99338 1.7768 0. 1
 -15 1 1 2 0 0 2.65854 -3.07877 -2.29576 4.99749 1.7768 0. -1
</event>
<event>
 4 80 1 -1 -1 -1
 11 -1 0 0 0 0 0 0 4.99999 4.99999 0 0. 9.
 -11 -1 0 0 0 0 0 0 -4.99998 4.99998 0 0. 9.
 15 1 1 2 0 0 1.14222 1.45603 -4.29155 4.99998 1.7768 0. 1
 -15 1 1 2 0 0 -1.14222 -1.45603 4.29156 4.99999 1.7768 0. -1
</event>
<event>
 4 80 1 -1 -1 -1
 11 -1 0 0 0 0 0 0 5 5 0 0. 9.
 -11 -1 0 0 0 0 0 0 -4.99906 4.99906 0 0. 9.
 15 1 1 2 0 0 -3.42759 2.55458 1.88814 4.99971 1.7768 0. -1
 -15 1 1 2 0 0 3.42759 -2.55458 -1.8872 4.99935 1.7768 0. 1
</event>
<event>
 4 80 1 -1 -1 -1
 11 -1 0 0 0 0 0 0 5 5 0 0. 9.
 -11 -1 0 0 0 0 0 0 -5 5 0 0. 9.
 15 1 1 2 0 0 3.76633 -0.200173 2.75989 5 1.7768 0. -1
 -15 1 1 2 0 0 -3.76633 0.200173 -2.75989 5 1.7768 0. 1
</event>
<event>
 4 80 1 -1 -1 -1
 11 -1 0 0 0 0 0 0 4.82509 4.82509 0 0. 9.
 -11 -1 0 0 0 0 0 0 -5 5 0 0. 9.
 15 1 1 2 0 0 -0.885651 4.23649 1.40792 4.88592 1.7768 0. 1
 -15 1 1 2 0 0 0.885651 -4.23649 -1.58283 4.93917 1.7768 0. -1
</event>
<event>
 4 80 1 -1 -1 -1
 11 -1 0 0 0 0 0 0 4.99974 4.99974 0 0. 9.
 -11 -1 0 0 0 0 0 0 -4.8896 4.8896 0 0. 9.
 15 1 1 2 0 0 3.06635 2.42973 2.50122 4.97192 1.7768 0. -1
 -15 1 1 2 0 0 -3.06635 -2.42973 -2.39108 4.91743 1.7768 0. 1
</event>
<event>
 4 80 1 -1 -1 -1
 11 -1 0 0 0 0 0 0 5 5 0 0. 9.
 -11 -1 0 0 0 0 0 0 -4.80844 4.80844 0 0. 9.
 15 1 1 2 0 0 3.40107 -1.57401 2.71156 4.95531 1.7768 0. -1
 -15 1 1 2 0 0 -3.40107 1.57401 -2.52 4.85313 1.7768 0. 1
</event>
<event>
 4 80 1 -1 -1 -1
 11 -1 0 0 0 0 0 0 5 5 0 0. 9.
 -11 -1 0 0 0 0 0 0 -4.99928 4.99928 0 0. 9.
 15 1 1 2 0 0 1.44468 1.67811 4.11564 4.99994 1.7768 0. 1
 -15 1 1 2 0 0 -1.44468 -1.67811 -4.11492 4.99934 1.7768 0. -1
</event>
<event>
 4 80 1 -1 -1 -1
 11 -1 0 0 0 0 0 0 5 5 0 0. 9.
 -11 -1 0 0 0 0 0 0 -2.85269 2.85269 0 0. 9.
 15 1 1 2 0 0 1.92141 -1.48182 -1.30118 3.27695 1.7768 0. 1
 -15 1 1 2 0 0 -1.92141 1.48182 3.44849 4.57574 1.7768 0. -1
</event>
<event>
 4 80 1 -1 -1 -1
 11 -1 0 0 0 0 0 0 4.94399 4.94399 0 0. 9.
 -11 -1 0 0 0 0 0 0 -5 5 0 0. 9.
 15 1 1 2 0 0 -0.0303244 -4.45872 1.26862 4.96469 1.7768 0. -1
 -15 1 1 2 0 0 0.0303244 4.45872 -1.32462 4.9793 1.7768 0. 1
</event>
<event>
 4 80 1 -1 -1 -1
 11 -1 0 0 0 0 0 0 5 5 0 0. 9.
 -11 -1 0 0 0 0 0 0 -5 5 0 0. 9.
 15 1 1 2 0 0 -0.372313 -0.600629 -4.61984 5 1.7768 0. 1
 -15 1 1 2 0 0 0.372313 0.600629 4.61984 5 1.7768 0. -1
</event>
<event>
 4 80 1 -1 -1 -1
 11 -1 0 0 0 0 0 0 5 5 0 0. 9.
 -11 -1 0 0 0 0 0 0 -5 5 0 0. 9.
 15 1 1 2 0 0 -1.68688 1.47782 -4.10034 5 1.7768 0. 1
 -15 1 1 2 0 0 1.68688 -1.47782 4.10034 5 1.7768 0. -1
</event>
<event>
 4 80 1 -1 -1 -1
 11 -1 0 0 0 0 0 0 4.96638 4.96638 0 0. 9.
 -11 -1 0 0 0 0 0 0 -5 5 0 0. 9.
 15 1 1 2 0 0 0.869199 4.10746 1.99502 4.9764 1.7768 0. 1
 -15 1 1 2 0 0 -0.869199 -4.10746 -2.02864 4.98998 1.7768 0. -1
</event>
<event>
 4 80 1 -1 -1 -1
 11 -1 0 0 0 0 0 0 5 5 0 0. 9.
 -11 -1 0 0 0 0 0 0 -5 5 0 0. 9.
 15 1 1 2 0 0 -2.81131 -0.643691 -3.67757 5 1.7768 0. 1
 -15 1 1 2 0 0 2.81131 0.643691 3.67757 5 1.7768 0. -1
</event>
<event>
 4 80 1 -1 -1 -1
 11 -1 0 0 0 0 0 0 4.86907 4.86907 0 0. 9.
 -11 -1 0 0 0 0 0 0 -5 5 0 0. 9.
 15 1 1 2 0 0 -2.58459 -3.27772 -2.00576 4.96028 1.7768 0. -1
 -15 1 1 2 0 0 2.58459 3.27772 1.87483 4.90879 1.7768 0. 1
</event>
<event>
 4 80 1 -1 -1 -1
 11 -1 0 0 0 0 0 0 4.91805 4.91805 0 0. 9.
 -11 -1 0 0 0 0 0 0 -4.99998 4.99998 0 0. 9.
 15 1 1 2 0 0 2.73283 -1.88762 3.18419 4.93237 1.7768 0. 1
 -15 1 1 2 0 0 -2.73283 1.88762 -3.26613 4.98566 1.7768 0. -1
</event>
<event>
 4 80 1 -1 -1 -1
 11 -1 0 0 0 0 0 0 5 5 0 0. 9.
 -11 -1 0 0 0 0 0 0 -4.97797 4.97797 0 0. 9.
 15 1 1 2 0 0 3.44148 -0.944589 3.01036 4.99561 1.7768 0. 1
 -15 1 1 2 0 0 -3.44148 0.944589 -2.98833 4.98236 1.7768 0. -1
</event>
<event>
 4 80 1 -1 -1 -1
 11 -1 0 0 0 0 0 0 5 5 0 0. 9.
 -11 -1 0 0 0 0 0 0 -5 5 0 0. 9.
 15 1 1 2 0 0 -1.94797 4.17785 -0.77024 5 1.7768 0. -1
 -15 1 1 2 0 0 1.94797 -4.17785 0.77024 5 1.7768 0. 1
</event>
<event>
 4 80 1 -1 -1 -1
 11 -1 0 0 0 0 0 0 5 5 0 0. 9.
 -11 -1 0 0 0 0 0 0 -5 5 0 0. 9.
 15 1 1 2 0 0 2.45488 -2.37804 -3.18759 5 1.7768 0. -1
 -15 1 1 2 0 0 -2.45488 2.37804 3.18759 5 1.7768 0. 1
</event>
<event>
 4 80 1 -1 -1 -1
 11 -1 0 0 0 0 0 0 5 5 0 0. 9.
 -11 -1 0 0 0 0 0 0 -5 5 0 0. 9.
 15 1 1 2 0 0 2.03543 -0.44159 4.18381 5 1.7768 0. 1
 -15 1 1 2 0 0 -2.03543 0.44159 -4.18381 5 1.7768 0. -1
</event>
<event>
 4 80 1 -1 -1 -1
 11 -1 0 0 0 0 0 0 5 5 0 0. 9.
 -11 -1 0 0 0 0 0 0 -1.57914 1.57914 0 0. 9.
 15 1 1 2 0 0 0.00807383 1.50244 3.55426 4.24828 1.7768 0. 1
 -15 1 1 2 0 0 -0.00807383 -1.50244 -0.133399 2.33086 1.7768 0. -1
</event>
<event>
 4 80 1 -1 -1 -1
 11 -1 0 0 0 0 0 0 5 5 0 0. 9.
 -11 -1 0 0 0 0 0 0 -5 5 0 0. 9.
 15 1 1 2 0 0 4.65825 -0.367532 0.088802 5 1.7768 0. -1
 -15 1 1 2 0 0 -4.65825 0.367532 -0.088802 5 1.7768 0. 1
</event>
<event>
 4 80 1 -1 -1 -1
 11 -1 0 0 0 0 0 0 5 5 0 0. 9.
 -11 -1 0 0 0 0 0 0 -4.99269 4.99269 0 0. 9.
 15 1 1 2 0 0 2.85639 -2.15175 -2.99914 4.99415 1.7768 0. -1
 -15 1 1 2 0 0 -2.85639 2.15175 3.00645 4.99854 1.7768 0. 1
</event>
<event>
 4 80 1 -1 -1 -1
 11 -1 0 0 0 0 0 0 5 5 0 0. 9.
 -11 -1 0 0 0 0 0 0 -4.99564 4.99564 0 0. 9.
 15 1 1 2 0 0 3.29524 1.85456 -2.74052 4.99662 1.7768 0. -1
 -15 1 1 2 0 0 -3.29524 -1.85456 2.74489 4.99902 1.7768 0. 1
</event>
<event>
 4 80 1 -1 -1 -1
 11 -1 0 0 0 0 0 0 4.9967 4.9967 0 0. 9.
 -11 -1 0 0 0 0 0 0 -5 5 0 0. 9.
 15 1 1 2 0 0 -0.43481 1.30959 4.46172 4.99688 1.7768 0. 1
 -15 1 1 2 0 0 0.43481 -1.30959 -4.46502 4.99982 1.7768 0. -1
</event>
<event>
 4 80 1 -1 -1 -1
 11 -1 0 0 0 0 0 0 5 5 0 0. 9.
 -11 -1 0 0 0 0 0 0 -5 5 0 0. 9.
 15 1 1 2 0 0 0.469804 4.51516 1.11127 5 1.7768 0. 1
 -15 1 1 2 0 0 -0.469804 -4.51516 -1.11127 5 1.7768 0. -1
</event>
<event>
 4 80 1 -1 -1 -1
 11 -1 0 0 0 0 0 0 5 5 0 0. 9.
 -11 -1 0 0 0 0 0 0 -4.10296 4.10296 0 0. 9.
 15 1 1 2 0 0 2.88206 -2.30252 2.39427 4.74322 1.7768 0. -1
 -15 1 1 2 0 0 -2.88206 2.30252 -1.49723 4.35973 1.7768 0. 1
</event>
<event>
 4 80 1 -1 -1 -1
 11 -1 0 0 0 0 0 0 5 5 0 0. 9.
 -11 -1 0 0 0 0 0 0 -3.66854 3.66854 0 0. 9.
 15 1 1 2 0 0 -2.40672 -2.02917 -1.65861 3.97726 1.7768 0. -1
 -15 1 1 2 0 0 2.40672 2.02917 2.99007 4.69128 1.7768 0. 1
</event>
<event>
 4 80 1 -1 -1 -1
 11 -1 0 0 0 0 0 0 4.98694 4.98694 0 0. 9.
 -11 -1 0 0 0 0 0 0 -4.99942 4.99942 0 0. 9.
 15 1 1 2 0 0 -3.50019 2.97107 -0.840168 4.99422 1.7768 0. -1
 -15 1 1 2 0 0 3.50019 -2.97107 0.827688 4.99213 1.7768 0. 1
</event>
<event>
 4 80 1 -1 -1 -1
 11 -1 0 0 0 0 0 0 5 5 0 0. 9.
 -11 -1 0 0 0 0 0 0 -4.99998 4.99998 0 0. 9.
 15 1 1 2 0 0 -1.07679 4.09397 -1.98043 4.99999 1.7768 0. -1
 -15 1 1 2 0 0 1.07679 -4.09397 1.98045 4.99999 1.7768 0. 1
</event>
<event>
 4 80 1 -1 -1 -1
 11 -1 0 0 0 0 0 0 5 5 0 0. 9.
 -11 -1 0 0 0 0 0 0 -5 5 0 0. 9.
 15 1 1 2 0 0 3.19804 2.99299 -1.62999 5 1.7768 0. 1
 -15 1 1 2 0 0 -3.19804 -2.99299 1.62999 5 1.7768 0. -1
</event>
<event>
 4 80 1 -1 -1 -1
 11 -1 0 0 0 0 0 0 4.95941 4.95941 0 0. 9.
 -11 -1 0 0 0 0 0 0 -5 5 0 0. 9.
 15 1 1 2 0 0 -2.50608 3.85299 -0.736777 4.98263 1.7768 0. -1
 -15 1 1 2 0 0 2.50608 -3.85299 0.696189 4.97679 1.7768 0. 1
</event>
<event>
 4 80 1 -1 -1 -1
 11 -1 0 0 0 0 0 0 5 5 0 0. 9.
 -11 -1 0 0 0 0 0 0 -3.74058 3.74058 0 0. 9.
 15 1 1 2 0 0 -0.435174 3.66578 2.02918 4.57194 1.7768 0. 1
 -15 1 1 2 0 0 0.435174 -3.66578 -0.769762 4.16865 1.7768 0. -1
</event>
<event>
 4 80 1 -1 -1 -1
 11 -1 0 0 0 0 0 0 4.92701 4.92701 0 0. 9.
 -11 -1 0 0 0 0 0 0 -1.41751 1.41751 0 0. 9.
 15 1 1 2 0 0 -1.3784 0.764789 0.364456 2.40322 1.7768 0. 1
 -15 1 1 2 0 0 1.3784 -0.764789 3.14504 3.94131 1.7768 0. -1
</event>
<event>
 4 80 1 -1 -1 -1
 11 -1 0 0 0 0 0 0 5 5 0 0. 9.
 -11 -1 0 0 0 0 0 0 -4.9954 4.9954 0 0. 9.
 15 1 1 2 0 0 1.60857 0.644115 4.34014 4.9997 1.7768 0. -1
 -15 1 1 2 0 0 -1.60857 -0.644115 -4.33554 4.9957 1.7768 0. 1
</event>
<event>
 4 80 1 -1 -1 -1
 11 -1 0 0 0 0 0 0 5 5 0 0. 9.
 -11 -1 0 0 0 0 0 0 -4.99999 4.99999 0 0. 9.
 15 1 1 2 0 0 -4.65603 -0.403476 -0.0294398 5 1.7768 0. 1
 -15 1 1 2 0 0 4.65603 0.403476 0.0294452 5 1.7768 0. -1
</event>
<event>
 4 80 1 -1 -1 -1
 11 -1 0 0 0 0 0 0 5 5 0 0. 9.
 -11 -1 0 0 0 0 0 0 -4.86419 4.86419 0 0. 9.
 15 1 1 2 0 0 4.56479 -0.324769 0.537443 4.93856 1.7768 0. -1
 -15 1 1 2 0 0 -4.56479 0.324769 -0.401638 4.92563 1.7768 0. 1
</event>
<event>
 4 80 1 -1 -1 -1
 11 -1 0 0 0 0 0 0 5 5 0 0. 9.
 -11 -1 0 0 0 0 0 0 -4.90371 4.90371 0 0. 9.
 15 1 1 2 0 0 -2.15599 -4.08137 -0.186262 4.94957 1.7768 0. 1
 -15 1 1 2 0 0 2.15599 4.08137 0.282555 4.95413 1.7768 0. -1
</event>
<event>
 4 80 1 -1 -1 -1
 11 -1 0 0 0 0 0 0 4.9999 4.9999 0 0. 9.
 -11 -1 0 0 0 0 0 0 -5 5 0 0. 9.
 15 1 1 2 0 0 3.96191 2.24852 -1.04366 4.99996 1.7768 0. -1
 -15 1 1 2 0 0 -3.96191 -2.24852 1.04356 4.99994 1.7768 0. 1
</event>
<event>
 4 80 1 -1 -1 -1
 11 -1 0 0 0 0 0 0 2.9354 2.9354 0 0. 9.
 -11 -1 0 0 0 0 0 0 -4.99204 4.99204 0 0. 9.
 15 1 1 2 0 0 -0.273232 -1.92205 1.84997 3.21699 1.7768 0. 1
 -15 1 1 2 0 0 0.273232 1.92205 -3.90661 4.71045 1.7768 0. -1
</event>
<event>
 4 80 1 -1 -1 -1
 11 -1 0 0 0 0 0 0 4.865 4.865 0 0. 9.
 -11 -1 0 0 0 0 0 0 -5 5 0 0. 9.
 15 1 1 2 0 0 2.26029 3.77934 1.2649 4.91427 1.7768 0. -1
 -15 1 1 2 0 0 -2.26029 -3.77934 -1.3999 4.95074 1.7768 0. 1
</event>
<event>
 4 80 1 -1 -1 -1
 11 -1 0 0 0 0 0 0 4.99675 4.99675 0 0. 9.
 -11 -1 0 0 0 0 0 0 -5 5 0 0. 9.
 15 1 1 2 0 0 -3.28215 0.731258 -3.24489 4.99943 1.7768 0. 1
 -15 1 1 2 0 0 3.28215 -0.731258 3.24164 4.99732 1.7768 0. -1
</event>
<event>
 4 80 1 -1 -1 -1
 11 -1 0 0 0 0 0 0 5 5 0 0. 9.
 -11 -1 0 0 0 0 0 0 -5 5 0 0. 9.
 15 1 1 2 0 0 -4.16091 -1.84155 -1.06666 5 1.7768 0. -1
 -15 1 1 2 0 0 4.16091 1.84155 1.06666 5 1.7768 0. 1
</event>
<event>
 4 80 1 -1 -1 -1
 11 -1 0 0 0 0 0 0 5 5 0 0. 9.
 -11 -1 0 0 0 0 0 0 -5 5 0 0. 9.
 15 1 1 2 0 0 3.52139 -2.41222 -1.9035 5 1.7768 0. 1
 -15 1 1 2 0 0 -3.52139 2.41222 1.9035 5 1.7768 0. -1
</event>
<event>
 4 80 1 -1 -1 -1
 11 -1 0 0 0 0 0 0 4.99983 4.99983 0 0. 9.
 -11 -1 0 0 0 0 0 0 -5 5 0 0. 9.
 15 1 1 2 0 0 0.757089 1.59723 -4.32641 4.99999 1.7768 0. -1
 -15 1 1 2 0 0 -0.757089 -1.59723 4.32624 4.99984 1.7768 0. 1
</event>
<event>
 4 80 1 -1 -1 -1
 11 -1 0 0 0 0 0 0 4.99999 4.99999 0 0. 9.
 -11 -1 0 0 0 0 0 0 -5 5 0 0. 9.
 15 1 1 2 0 0 -3.30344 -1.59255 2.89712 4.99999 1.7768 0. -1
 -15 1 1 2 0 0 3.30344 1.59255 -2.89712 5 1.7768 0. 1
</event>
<event>
 4 80 1 -1 -1 -1
 11 -1 0 0 0 0 0 0 5 5 0 0. 9.
 -11 -1 0 0 0 0 0 0 -5 5 0 0. 9.
 15 1 1 2 0 0 4.09379 -1.24006 1.88292 5 1.7768 0. -1
 -15 1 1 2 0 0 -4.09379 1.24006 -1.88292 5 1.7768 0. 1
</event>
<event>
 4 80 1 -1 -1 -1
 11 -1 0 0 0 0 0 0 5 5 0 0. 9.
 -11 -1 0 0 0 0 0 0 -5 5 0 0. 9.
 15 1 1 2 0 0 -3.89636 2.09283 -1.51021 5 1.7768 0. 1
 -15 1 1 2 0 0 3.89636 -2.09283 1.51021 5 1.7768 0. -1
</event>
<event>
 4 80 1 -1 -1 -1
 11 -1 0 0 0 0 0 0 5 5 0 0. 9.
 -11 -1 0 0 0 0 0 0 -4.13565 4.13565 0 0. 9.
 15 1 1 2 0 0 2.42771 -2.41913 -1.98169 4.33944 1.7768 0. 1
 -15 1 1 2 0 0 -2.42771 2.41913 2.84603 4.79621 1.7768 0. -1
</event>
<event>
 4 80 1 -1 -1 -1
 11 -1 0 0 0 0 0 0 4.9986 4.9986 0 0. 9.
 -11 -1 0 0 0 0 0 0 -5 5 0 0. 9.
 15 1 1 2 0 0 0.754584 -1.11952 -4.47424 4.99993 1.7768 0. -1
 -15 1 1 2 0 0 -0.754584 1.11952 4.47284 4.99867 1.7768 0. 1
</event>
<event>
 4 80 1 -1 -1 -1
 11 -1 0 0 0 0 0 0 4.88284 4.88284 0 0. 9.
 -11 -1 0 0 0 0 0 0 -5 5 0 0. 9.
 15 1 1 2 0 0 -1.90516 2.9579 2.92116 4.90609 1.7768 0. -1
 -15 1 1 2 0 0 1.90516 -2.9579 -3.03833 4.97674 1.7768 0. 1
</event>
<event>
 4 80 1 -1 -1 -1
 11 -1 0 0 0 0 0 0 4.8867 4.8867 0 0. 9.
 -11 -1 0 0 0 0 0 0 -5 5 0 0. 9.
 15 1 1 2 0 0 -3.6703 0.60214 -2.78485 4.97461 1.7768 0. -1
 -15 1 1 2 0 0 3.6703 -0.60214 2.67155 4.91208 1.7768 0. 1
</event>
<event>
 4 80 1 -1 -1 -1
 11 -1 0 0 0 0 0 0 5 5 0 0. 9.
 -11 -1 0 0 0 0 0 0 -5 5 0 0. 9.
 15 1 1 2 0 0 0.0933992 -2.44589 -3.98136 5 1.7768 0. -1
 -15 1 1 2 0 0 -0.0933992 2.44589 3.98136 5 1.7768 0. 1
</event>
<event>
 4 80 1 -1 -1 -1
 11 -1 0 0 0 0 0 0 4.99993 4.99993 0 0. 9.
 -11 -1 0 0 0 0 0 0 -5 5 0 0. 9.
 15 1 1 2 0 0 0.772517 -1.40475 4.38994 4.99994 1.7768 0. -1
 -15 1 1 2 0 0 -0.772517 1.40475 -4.39 5 1.7768 0. 1
</event>
<event>
 4 80 1 -1 -1 -1
 11 -1 0 0 0 0 0 0 4.98814 4.98814 0 0. 9.
 -11 -1 0 0 0 0 0 0 -5 5 0 0. 9.
 15 1 1 2 0 0 1.99997 -3.38302 2.51166 4.99108 1.7768 0. -1
 -15 1 1 2 0 0 -1.99997 3.38302 -2.52352 4.99706 1.7768 0. 1
</event>
<event>
 4 80 1 -1 -1 -1
 11 -1 0 0 0 0 0 0 5 5 0 0. 9.
 -11 -1 0 0 0 0 0 0 -5 5 0 0. 9.
 15 1 1 2 0 0 2.80135 3.73662 0.180109 5 1.7768 0. -1
 -15 1 1 2 0 0 -2.80135 -3.73662 -0.180109 5 1.7768 0. 1
</event>
<event>
 4 80 1 -1 -1 -1
 11 -1 0 0 0 0 0 0 1.14272 1.14272 0 0. 9.
 -11 -1 0 0 0 0 0 0 -5 5 0 0. 9.
 15 1 1 2 0 0 -0.643627 0.0483596 -3.808 4.25149 1.7768 0. -1
 -15 1 1 2 0 0 0.643627 -0.0483596 -0.0492755 1.89123 1.7768 0. 1
</event>
<event>
 4 80 1 -1 -1 -1
 11 -1 0 0 0 0 0 0 1.98077 1.98077 0 0. 9.
 -11 -1 0 0 0 0 0 0 -5 5 0 0. 9.
 15 1 1 2 0 0 0.0561441 2.0872 0.203784 2.74933 1.7768 0. -1
 -15 1 1 2 0 0 -0.0561441 -2.0872 -3.22301 4.23144 1.7768 0. 1
</event>
<event>
 4 80 1 -1 -1 -1
 11 -1 0 0 0 0 0 0 5 5 0 0. 9.
 -11 -1 0 0 0 0 0 0 -4.83922 4.83922 0 0. 9.
 15 1 1 2 0 0 -0.060278 0.197941 4.66309 4.99449 1.7768 0. -1
 -15 1 1 2 0 0 0.060278 -0.197941 -4.50232 4.84473 1.7768 0. 1
</event>
<event>
 4 80 1 -1 -1 -1
 11 -1 0 0 0 0 0 0 5 5 0 0. 9.
 -11 -1 0 0 0 0 0 0 -5 5 0 0. 9.
 15 1 1 2 0 0 2.61827 3.30158 2.02152 5 1.7768 0. 1
 -15 1 1 2 0 0 -2.61827 -3.30158 -2.02152 5 1.7768 0. -1
</event>
<event>
 4 80 1 -1 -1 -1
 11 -1 0 0 0 0 0 0 4.28848 4.28848 0 0. 9.
 -11 -1 0 0 0 0 0 0 -4.96779 4.96779 0 0. 9.
 15 1 1 2 0 0 2.75681 0.796549 -3.49651 4.85981 1.7768 0. 1
 -15 1 1 2 0 0 -2.75681 -0.796549 2.8172 4.39646 1.7768 0. -1
</event>
<event>
 4 80 1 -1 -1 -1
 11 -1 0 0 0 0 0 0 5 5 0 0. 9.
 -11 -1 0 0 0 0 0 0 -5 5 0 0. 9.
 15 1 1 2 0 0 0.628957 0.75217 4.56956 5 1.7768 0. 1
 -15 1 1 2 0 0 -0.628957 -0.75217 -4.56956 5 1.7768 0. -1
</event>
<event>
 4 80 1 -1 -1 -1
 11 -1 0 0 0 0 0 0 4.95862 4.95862 0 0. 9.
 -11 -1 0 0 0 0 0 0 -4.99985 4.99985 0 0. 9.
 15 1 1 2 0 0 -2.69013 -3.06505 2.21622 4.96997 1.7768 0. 1
 -15 1 1 2 0 0 2.69013 3.06505 -2.25745 4.9885 1.7768 0. -1
</event>
<event>
 4 80 1 -1 -1 -1
 11 -1 0 0 0 0 0 0 5 5 0 0. 9.
 -11 -1 0 0 0 0 0 0 -5 5 0 0. 9.
 15 1 1 2 0 0 -1.38237 3.25649 3.05395 5 1.7768 0. 1
 -15 1 1 2 0 0 1.38237 -3.25649 -3.05395 5 1.7768 0. -1
</event>
<event>
 4 80 1 -1 -1 -1
 11 -1 0 0 0 0 0 0 4.9994 4.9994 0 0. 9.
 -11 -1 0 0 0 0 0 0 -5 5 0 0. 9.
 15 1 1 2 0 0 -4.10204 0.812072 2.0861 4.99958 1.7768 0. 1
 -15 1 1 2 0 0 4.10204 -0.812072 -2.0867 4.99983 1.7768 0. -1
</event>
<event>
 4 80 1 -1 -1 -1
 11 -1 0 0 0 0 0 0 4.99997 4.99997 0 0. 9.
 -11 -1 0 0 0 0 0 0 -5 5 0 0. 9.
 15 1 1 2 0 0 0.74614 -4.33319 -1.58395 4.99999 1.7768 0. 1
 -15 1 1 2 0 0 -0.74614 4.33319 1.58393 4.99998 1.7768 0. -1
</event>
<event>
 4 80 1 -1 -1 -1
 11 -1 0 0 0 0 0 0 5 5 0 0. 9.
 -11 -1 0 0 0 0 0 0 -5 5 0 0. 9.
 15 1 1 2 0 0 4.56931 0.839754 0.508435 5 1.7768 0. -1
 -15 1 1 2 0 0 -4.56931 -0.839754 -0.508435 5 1.7768 0. 1
</event>
<event>
 4 80 1 -1 -1 -1
 11 -1 0 0 0 0 0 0 4.9864 4.9864 0 0. 9.
 -11 -1 0 0 0 0 0 0 -5 5 0 0. 9.
 15 1 1 2 0 0 -2.18543 1.70867 -3.75895 4.99831 1.7768 0. -1
 -15 1 1 2 0 0 2.18543 -1.70867 3.74535 4.98809 1.7768 0. 1
</event>
<event>
 4 80 1 -1 -1 -1
 11 -1 0 0 0 0 0 0 5 5 0 0. 9.
 -11 -1 0 0 0 0 0 0 -4.55247 4.55247 0 0. 9.
 15 1 1 2 0 0 1.01537 4.15516 -0.921286 4.72259 1.7768 0. 1
 -15 1 1 2 0 0 -1.01537 -4.15516 1.36882 4.82988 1.7768 0. -1
</event>
<event>
 4 80 1 -1 -1 -1
 11 -1 0 0 0 0 0 0 5 5 0 0. 9.
 -11 -1 0 0 0 0 0 0 -5 5 0 0. 9.
 15 1 1 2 0 0 1.8667 -0.315561 4.27295 5 1.7768 0. -1
 -15 1 1 2 0 0 -1.8667 0.315561 -4.27295 5 1.7768 0. 1
</event>
<event>
 4 80 1 -1 -1 -1
 11 -1 0 0 0 0 0 0 1.18524 1.18524 0 0. 9.
 -11 -1 0 0 0 0 0 0 -4.98389 4.98389 0 0. 9.
 15 1 1 2 0 0 0.163344 -1.05119 -0.28514 2.09063 1.7768 0. 1
 -15 1 1 2 0 0 -0.163344 1.05119 -3.51352 4.07851 1.7768 0. -1
</event>
<event>
 4 80 1 -1 -1 -1
 11 -1 0 0 0 0 0 0 4.99999 4.99999 0 0. 9.
 -11 -1 0 0 0 0 0 0 -5 5 0 0. 9.
 15 1 1 2 0 0 -0.937244 0.960025 4.47685 5 1.7768 0. 1
 -15 1 1 2 0 0 0.937244 -0.960025 -4.47685 5 1.7768 0. -1
</event>
<event>
 4 80 1 -1 -1 -1
 11 -1 0 0 0 0 0 0 4.9978 4.9978 0 0. 9.
 -11 -1 0 0 0 0 0 0 -5 5 0 0. 9.
 15 1 1 2 0 0 0.189257 -3.86963 -2.61288 4.99947 1.7768 0. -1
 -15 1 1 2 0 0 -0.189257 3.86963 2.61068 4.99833 1.7768 0. 1
</event>
<event>
 4 80 1 -1 -1 -1
 11 -1 0 0 0 0 0 0 5 5 0 0. 9.
 -11 -1 0 0 0 0 0 0 -5 5 0 0. 9.
 15 1 1 2 0 0 -2.02926 2.93754 3.01583 5 1.7768 0. 1
 -15 1 1 2 0 0 2.02926 -2.93754 -3.01583 5 1.7768 0. -1
</event>
<event>
 4 80 1 -1 -1 -1
 11 -1 0 0 0 0 0 0 5 5 0 0. 9.
 -11 -1 0 0 0 0 0 0 -3.35181 3.35181 0 0. 9.
 15 1 1 2 0 0 0.803758 3.0512 2.77171 4.56026 1.7768 0. -1
 -15 1 1 2 0 0 -0.803758 -3.0512 -1.12353 3.79156 1.7768 0. 1
</event>
<event>
 4 80 1 -1 -1 -1
 11 -1 0 0 0 0 0 0 5 5 0 0. 9.
 -11 -1 0 0 0 0 0 0 -1.17379 1.17379 0 0. 9.
 15 1 1 2 0 0 0.396536 -1.26691 3.15435 3.85616 1.7768 0. -1
 -15 1 1 2 0 0 -0.396536 1.26691 0.671852 2.31763 1.7768 0. 1
</event>
<event>
 4 80 1 -1 -1 -1
 11 -1 0 0 0 0 0 0 4.99999 4.99999 0 0. 9.
 -11 -1 0 0 0 0 0 0 -4.99874 4.99874 0 0. 9.
 15 1 1 2 0 0 2.44473 1.90428 -3.49693 4.99893 1.7768 0. 1
 -15 1 1 2 0 0 -2.44473 -1.90428 3.49819 4.99981 1.7768 0. -1
</event>
<event>
 4 80 1 -1 -1 -1
 11 -1 0 0 0 0 0 0 5 5 0 0. 9.
 -11 -1 0 0 0 0 0 0 -4.99852 4.99852 0 0. 9.
 15 1 1 2 0 0 -0.822765 2.48256 3.87305 4.99983 1.7768 0. -1
 -15 1 1 2 0 0 0.822765 -2.48256 -3.87157 4.99869 1.7768 0. 1
</event>
<event>
 4 80 1 -1 -1 -1
 11 -1 0 0 0 0 0 0 5 5 0 0. 9.
 -11 -1 0 0 0 0 0 0 -5 5 0 0. 9.
 15 1 1 2 0 0 -0.109075 4.64761 -0.479705 5 1.7768 0. -1
 -15 1 1 2 0 0 0.109075 -4.64761 0.479704 5 1.7768 0. 1
</event>
<event>
 4 80 1 -1 -1 -1
 11 -1 0 0 0 0 0 0 4.62238 4.62238 0 0. 9.
 -11 -1 0 0 0 0 0 0 -4.97621 4.97621 0 0. 9.
 15 1 1 2 0 0 3.21546 -2.18093 2.00369 4.71891 1.7768 0. -1
 -15 1 1 2 0 0 -3.21546 2.18093 -2.35752 4.87968 1.7768 0. 1
</event>
<event>
 4 80 1 -1 -1 -1
 11 -1 0 0 0 0 0 0 5 5 0 0. 9.
 -11 -1 0 0 0 0 0 0 -5 5 0 0. 9.
 15 1 1 2 0 0 1.16441 0.810435 -4.45305 5 1.7768 0. 1
 -15 1 1 2 0 0 -1.16441 -0.810435 4.45304 5 1.7768 0. -1
</event>
<event>
 4 80 1 -1 -1 -1
 11 -1 0 0 0 0 0 0 4.55465 4.55465 0 0. 9.
 -11 -1 0 0 0 0 0 0 -2.47332 2.47332 0 0. 9.
 15 1 1 2 0 0 2.72865 -0.77116 0.76933 3.43363 1.7768 0. -1
 -15 1 1 2 0 0 -2.72865 0.77116 1.312 3.59434 1.7768 0. 1
</event>
<event>
 4 80 1 -1 -1 -1
 11 -1 0 0 0 0 0 0 4.98808 4.98808 0 0. 9.
 -11 -1 0 0 0 0 0 0 -4.99726 4.99726 0 0. 9.
 15 1 1 2 0 0 -1.88836 0.167868 -4.2678 4.99659 1.7768 0. -1
 -15 1 1 2 0 0 1.88836 -0.167868 4.25862 4.98876 1.7768 0. 1
</event>
<event>
 4 80 1 -1 -1 -1
 11 -1 0 0 0 0 0 0 5 5 0 0. 9.
 -11 -1 0 0 0 0 0 0 -4.98473 4.98473 0 0. 9.
 15 1 1 2 0 0 3.79208 -1.43801 -2.29848 4.98884 1.7768 0. -1
 -15 1 1 2 0 0 -3.79208 1.43801 2.31375 4.99589 1.7768 0. 1
</event>
<event>
 4 80 1 -1 -1 -1
 11 -1 0 0 0 0 0 0 4.9865 4.9865 0 0. 9.
 -11 -1 0 0 0 0 0 0 -4.16186 4.16186 0 0. 9.
 15 1 1 2 0 0 1.991 -3.1726 -1.48377 4.40326 1.7768 0. -1
 -15 1 1 2 0 0 -1.991 3.1726 2.30842 4.7451 1.7768 0. 1
</event>
<event>
 4 80 1 -1 -1 -1
 11 -1 0 0 0 0 0 0 5 5 0 0. 9.
 -11 -1 0 0 0 0 0 0 -4.99997 4.99997 0 0. 9.
 15 1 1 2 0 0 3.7625 0.678382 2.68805 4.99999 1.7768 0. 1
 -15 1 1 2 0 0 -3.7625 -0.678382 -2.68802 4.99998 1.7768 0. -1
</event>
<event>
 4 80 1 -1 -1 -1
 11 -1 0 0 0 0 0 0 4.99982 4.99982 0 0. 9.
 -11 -1 0 0 0 0 0 0 -4.99988 4.99988 0 0. 9.
 15 1 1 2 0 0 -1.1455 -4.38271 -1.14913 4.99986 1.7768 0. -1
 -15 1 1 2 0 0 1.1455 4.38271 1.14906 4.99984 1.7768 0. 1
</event>
<event>
 4 80 1 -1 -1 -1
 11 -1 0 0 0 0 0 0 4.99951 4.99951 0 0. 9.
 -11 -1 0 0 0 0 0 0 -5 5 0 0. 9.
 15 1 1 2 0 0 2.23014 -2.52344 3.2399 4.9996 1.7768 0. -1
 -15 1 1 2 0 0 -2.23014 2.52344 -3.24039 4.99991 1.7768 0. 1
</event>
<event>
 4 80 1 -1 -1 -1
 11 -1 0 0 0 0 0 0 5 5 0 0. 9.
 -11 -1 0 0 0 0 0 0 -2.44039 2.44039 0 0. 9.
 15 1 1 2 0 0 1.84181 1.81467 -0.355906 3.15748 1.7768 0. 1
 -15 1 1 2 0 0 -1.84181 -1.81467 2.91552 4.2829 1.7768 0. -1
</event>
<event>
 4 80 1 -1 -1 -1
 11 -1 0 0 0 0 0 0 5 5 0 0. 9.
 -11 -1 0 0 0 0 0 0 -5 5 0 0. 9.
 15 1 1 2 0 0 3.43785 2.97466 -1.08389 5 1.7768 0. -1
 -15 1 1 2 0 0 -3.43785 -2.97466 1.08389 5 1.7768 0. 1
</event>
<event>
 4 80 1 -1 -1 -1
 11 -1 0 0 0 0 0 0 5 5 0 0. 9.
 -11 -1 0 0 0 0 0 0 -5 5 0 0. 9.
 15 1 1 2 0 0 -1.47936 -0.502636 4.40467 5 1.7768 0. 1
 -15 1 1 2 0 0 1.47936 0.502636 -4.40467 5 1.7768 0. -1
</event>
<event>
 4 80 1 -1 -1 -1
 11 -1 0 0 0 0 0 0 5 5 0 0. 9.
 -11 -1 0 0 0 0 0 0 -4.98786 4.98786 0 0. 9.
 15 1 1 2 0 0 3.60438 0.238747 2.96124 4.99752 1.7768 0. -1
 -15 1 1 2 0 0 -3.60438 -0.238747 -2.9491 4.99034 1.7768 0. 1
</event>
<event>
 4 80 1 -1 -1 -1
 11 -1 0 0 0 0 0 0 5 5 0 0. 9.
 -11 -1 0 0 0 0 0 0 -5 5 0 0. 9.
 15 1 1 2 0 0 -3.17925 0.177974 3.42096 5 1.7768 0. -1
 -15 1 1 2 0 0 3.17925 -0.177974 -3.42096 5 1.7768 0. 1
</event>
<event>
 4 80 1 -1 -1 -1
 11 -1 0 0 0 0 0 0 5 5 0 0. 9.
 -11 -1 0 0 0 0 0 0 -5 5 0 0. 9.
 15 1 1 2 0 0 -3.34068 -2.84686 -1.60547 5 1.7768 0. -1
 -15 1 1 2 0 0 3.34068 2.84686 1.60547 5 1.7768 0. 1
</event>
<event>
 4 80 1 -1 -1 -1
 11 -1 0 0 0 0 0 0 4.82625 4.82625 0 0. 9.
 -11 -1 0 0 0 0 0 0 -5 5 0 0. 9.
 15 1 1 2 0 0 3.11037 -3.36135 -0.106991 4.91348 1.7768 0. -1
 -15 1 1 2 0 0 -3.11037 3.36135 -0.0667597 4.91277 1.7768 0. 1
</event>
<event>
 4 80 1 -1 -1 -1
 11 -1 0 0 0 0 0 0 5 5 0 0. 9.
 -11 -1 0 0 0 0 0 0 -4.99999 4.99999 0 0. 9.
 15 1 1 2 0 0 -0.345962 -4.55746 -0.97575 5 1.7768 0. 1
 -15 1 1 2 0 0 0.345962 4.55746 0.975758 5 1.7768 0. -1
</event>
<event>
 4 80 1 -1 -1 -1
 11 -1 0 0 0 0 0 0 4.54024 4.54024 0 0. 9.
 -11 -1 0 0 0 0 0 0 -4.87898 4.87898 0 0. 9.
 15 1 1 2 0 0 -3.04535 -0.850238 2.83207 4.60167 1.7768 0. -1
 -15 1 1 2 0 0 3.04535 0.850238 -3.17081 4.81755 1.7768 0. 1
</event>
<event>
 4 80 1 -1 -1 -1
 11 -1 0 0 0 0 0 0 5 5 0 0. 9.
 -11 -1 0 0 0 0 0 0 -4.99966 4.99966 0 0. 9.
 15 1 1 2 0 0 4.39347 1.5455 0.386708 4.99985 1.7768 0. -1
 -15 1 1 2 0 0 -4.39347 -1.5455 -0.386372 4.99982 1.7768 0. 1
</event>
<event>
 4 80 1 -1 -1 -1
 11 -1 0 0 0 0 0 0 4.99927 4.99927 0 0. 9.
 -11 -1 0 0 0 0 0 0 -4.98632 4.98632 0 0. 9.
 15 1 1 2 0 0 0.314312 3.77008 -2.72445 4.98926 1.7768 0. -1
 -15 1 1 2 0 0 -0.314312 -3.77008 2.73739 4.99633 1.7768 0. 1
</event>
<event>
 4 80 1 -1 -1 -1
 11 -1 0 0 0 0 0 0 5 5 0 0. 9.
 -11 -1 0 0 0 0 0 0 -5 5 0 0. 9.
 15 1 1 2 0 0 -1.44086 0.229402 4.44 5 1.7768 0. -1
 -15 1 1 2 0 0 1.44086 -0.229402 -4.43999 5 1.7768 0. 1
</event>
<event>
 4 80 1 -1 -1 -1
 11 -1 0 0 0 0 0 0 4.99524 4.99524 0 0. 9.
 -11 -1 0 0 0 0 0 0 -5 5 0 0. 9.
 15 1 1 2 0 0 -3.07608 3.08999 1.67339 4.99682 1.7768 0. 1
 -15 1 1 2 0 0 3.07608 -3.08999 -1.67815 4.99842 1.7768 0. -1
</event>
<event>
 4 80 1 -1 -1 -1
 11 -1 0 0 0 0 0 0 5 5 0 0. 9.
 -11 -1 0 0 0 0 0 0 -4.99993 4.99993 0 0. 9.
 15 1 1 2 0 0 2.0838 3.10245 2.80619 4.99998 1.7768 0. -1
 -15 1 1 2 0 0 -2.0838 -3.10245 -2.80612 4.99994 1.7768 0. 1
</event>
<event>
 4 80 1 -1 -1 -1
 11 -1 0 0 0 0 0 0 5 5 0 0. 9.
 -11 -1 0 0 0 0 0 0 -4.99998 4.99998 0 0. 9.
 15 1 1 2 0 0 -0.249353 0.783664 -4.60062 4.99998 1.7768 0. -1
 -15 1 1 2 0 0 0.249353 -0.783664 4.60065 5 1.7768 0. 1
</event>
<event>
 4 80 1 -1 -1 -1
 11 -1 0 0 0 0 0 0 5 5 0 0. 9.
 -11 -1 0 0 0 0 0 0 -5 5 0 0. 9.
 15 1 1 2 0 0 2.93297 -3.62211 -0.346833 5 1.7768 0. 1
 -15 1 1 2 0 0 -2.93297 3.62211 0.346833 5 1.7768 0. -1
</event>
<event>
 4 80 1 -1 -1 -1
 11 -1 0 0 0 0 0 0 5 5 0 0. 9.
 -11 -1 0 0 0 0 0 0 -3.03378 3.03378 0 0. 9.
 15 1 1 2 0 0 -2.35514 -2.41741 1.79561 4.21574 1.7768 0. -1
 -15 1 1 2 0 0 2.35514 2.41741 0.170612 3.81804 1.7768 0. 1
</event>
<event>
 4 80 1 -1 -1 -1
 11 -1 0 0 0 0 0 0 4.40045 4.40045 0 0. 9.
 -11 -1 0 0 0 0 0 0 -4.99964 4.99964 0 0. 9.
 15 1 1 2 0 0 3.84294 -1.98348 -0.675253 4.72399 1.7768 0. -1
 -15 1 1 2 0 0 -3.84294 1.98348 0.0760656 4.6761 1.7768 0. 1
</event>
<event>
 4 80 1 -1 -1 -1
 11 -1 0 0 0 0 0 0 5 5 0 0. 9.
 -11 -1 0 0 0 0 0 0 -1.71348 1.71348 0 0. 9.
 15 1 1 2 0 0 -1.64881 1.26062 2.8471 3.94607 1.7768 0. -1
 -15 1 1 2 0 0 1.64881 -1.26062 0.439412 2.76741 1.7768 0. 1
</event>
<event>
 4 80 1 -1 -1 -1
 11 -1 0 0 0 0 0 0 2.87807 2.87807 0 0. 9.
 -11 -1 0 0 0 0 0 0 -5 5 0 0. 9.
 15 1 1 2 0 0 0.738407 -0.83948 2.21981 3.05537 1.7768 0. -1
 -15 1 1 2 0 0 -0.738407 0.83948 -4.34174 4.8227 1.7768 0. 1
</event>
<event>
 4 80 1 -1 -1 -1
 11 -1 0 0 0 0 0 0 4.99797 4.99797 0 0. 9.
 -11 -1 0 0 0 0 0 0 -4.47333 4.47333 0 0. 9.
 15 1 1 2 0 0 2.27268 -0.0370344 4.0142 4.94348 1.7768 0. 1
 -15 1 1 2 0 0 -2.27268 0.0370344 -3.48955 4.52782 1.7768 0. -1
</event>
<event>
 4 80 1 -1 -1 -1
 11 -1 0 0 0 0 0 0 5 5 0 0. 9.
 -11 -1 0 0 0 0 0 0 -4.98186 4.98186 0 0. 9.
 15 1 1 2 0 0 -1.96196 -0.61214 -4.17753 4.98332 1.7768 0. 1
 -15 1 1 2 0 0 1.96196 0.61214 4.19567 4.99854 1.7768 0. -1
</event>
<event>
 4 80 1 -1 -1 -1
 11 -1 0 0 0 0 0 0 5 5 0 0. 9.
 -11 -1 0 0 0 0 0 0 -5 5 0 0. 9.
 15 1 1 2 0 0 1.41343 4.18093 -1.53762 5 1.7768 0. 1
 -15 1 1 2 0 0 -1.41343 -4.18093 1.53762 5 1.7768 0. -1
</event>
<event>
 4 80 1 -1 -1 -1
 11 -1 0 0 0 0 0 0 5 5 0 0. 9.
 -11 -1 0 0 0 0 0 0 -5 5 0 0. 9.
 15 1 1 2 0 0 1.62211 -0.370692 -4.36734 5 1.7768 0. 1
 -15 1 1 2 0 0 -1.62211 0.370692 4.36734 5 1.7768 0. -1
</event>
<event>
 4 80 1 -1 -1 -1
 11 -1 0 0 0 0 0 0 4.82061 4.82061 0 0. 9.
 -11 -1 0 0 0 0 0 0 -3.85684 3.85684 0 0. 9.
 15 1 1 2 0 0 0.960269 3.1604 2.62217 4.57643 1.7768 0. -1
 -15 1 1 2 0 0 -0.960269 -3.1604 -1.6584 4.10101 1.7768 0. 1
</event>
<event>
 4 80 1 -1 -1 -1
 11 -1 0 0 0 0 0 0 5 5 0 0. 9.
 -11 -1 0 0 0 0 0 0 -5 5 0 0. 9.
 15 1 1 2 0 0 2.77434 0.419353 -3.73757 5 1.7768 0. -1
 -15 1 1 2 0 0 -2.77434 -0.419353 3.73757 5 1.7768 0. 1
</event>
<event>
 4 80 1 -1 -1 -1
 11 -1 0 0 0 0 0 0 5 5 0 0. 9.
 -11 -1 0 0 0 0 0 0 -5 5 0 0. 9.
 15 1 1 2 0 0 2.73926 2.14951 -3.11743 5 1.7768 0. 1
 -15 1 1 2 0 0 -2.73926 -2.14951 3.11743 5 1.7768 0. -1
</event>
<event>
 4 80 1 -1 -1 -1
 11 -1 0 0 0 0 0 0 5 5 0 0. 9.
 -11 -1 0 0 0 0 0 0 -4.92805 4.92805 0 0. 9.
 15 1 1 2 0 0 -3.85483 1.46781 -2.07794 4.94871 1.7768 0. -1
 -15 1 1 2 0 0 3.85483 -1.46781 2.14989 4.97934 1.7768 0. 1
</event>
<event>
 4 80 1 -1 -1 -1
 11 -1 0 0 0 0 0 0 5 5 0 0. 9.
 -11 -1 0 0 0 0 0 0 -5 5 0 0. 9.
 15 1 1 2 0 0 -2.67164 -0.597663 3.7878 5 1.7768 0. 1
 -15 1 1 2 0 0 2.67164 0.597663 -3.7878 5 1.7768 0. -1
</event>
<event>
 4 80 1 -1 -1 -1
 11 -1 0 0 0 0 0 0 1.47793 1.47793 0 0. 9.
 -11 -1 0 0 0 0 0 0 -5 5 0 0. 9.
 15 1 1 2 0 0 -1.04327 0.936797 0.0325363 2.2638 1.7768 0. -1
 -15 1 1 2 0 0 1.04327 -0.936797 -3.5546 4.21413 1.7768 0. 1
</event>
<event>
 4 80 1 -1 -1 -1
 11 -1 0 0 0 0 0 0 5 5 0 0. 9.
 -11 -1 0 0 0 0 0 0 -4.99993 4.99993 0 0. 9.
 15 1 1 2 0 0 3.12381 -2.45911 -2.45689 4.99995 1.7768 0. -1
 -15 1 1 2 0 0 -3.12381 2.45911 2.45696 4.99998 1.7768 0. 1
</event>
<event>
 4 80 1 -1 -1 -1
 11 -1 0 0 0 0 0 0 4.99919 4.99919 0 0. 9.
 -11 -1 0 0 0 0 0 0 -4.99248 4.99248 0 0. 9.
 15 1 1 2 0 0 -1.48467 -1.6348 -4.1105 4.99307 1.7768 0. 1
 -15 1 1 2 0 0 1.48467 1.6348 4.11722 4.9986 1.7768 0. -1
</event>
<event>
 4 80 1 -1 -1 -1
 11 -1 0 0 0 0 0 0 4.64659 4.64659 0 0. 9.
 -11 -1 0 0 0 0 0 0 -5 5 0 0. 9.
 15 1 1 2 0 0 0.185624 -0.93782 -4.557 4.98377 1.7768 0. 1
 -15 1 1 2 0 0 -0.185624 0.93782 4.2036 4.66282 1.7768 0. -1
</event>
<event>
 4 80 1 -1 -1 -1
 11 -1 0 0 0 0 0 0 5 5 0 0. 9.
 -11 -1 0 0 0 0 0 0 -5 5 0 0. 9.
 15 1 1 2 0 0 0.998182 -0.353914 4.55199 5 1.7768 0. 1
 -15 1 1 2 0 0 -0.998182 0.353914 -4.55199 5 1.7768 0. -1
</event>
<event>
 4 80 1 -1 -1 -1
 11 -1 0 0 0 0 0 0 5 5 0 0. 9.
 -11 -1 0 0 0 0 0 0 -5 5 0 0. 9.
 15 1 1 2 0 0 1.45359 2.84241 3.41322 5 1.7768 0. -1
 -15 1 1 2 0 0 -1.45359 -2.84241 -3.41322 5 1.7768 0. 1
</event>
<event>
 4 80 1 -1 -1 -1
 11 -1 0 0 0 0 0 0 5 5 0 0. 9.
 -11 -1 0 0 0 0 0 0 -5 5 0 0. 9.
 15 1 1 2 0 0 -2.69291 -2.59158 2.80611 5 1.7768 0. 1
 -15 1 1 2 0 0 2.69291 2.59158 -2.80611 5 1.7768 0. -1
</event>
<event>
 4 80 1 -1 -1 -1
 11 -1 0 0 0 0 0 0 4.99995 4.99995 0 0. 9.
 -11 -1 0 0 0 0 0 0 -4.99999 4.99999 0 0. 9.
 15 1 1 2 0 0 2.79695 -1.74624 -3.31208 4.99999 1.7768 0. -1
 -15 1 1 2 0 0 -2.79695 1.74624 3.31204 4.99996 1.7768 0. 1
</event>
<event>
 4 80 1 -1 -1 -1
 11 -1 0 0 0 0 0 0 5 5 0 0. 9.
 -11 -1 0 0 0 0 0 0 -5 5 0 0. 9.
 15 1 1 2 0 0 3.20946 0.218557 3.39026 5 1.7768 0. 1
 -15 1 1 2 0 0 -3.20946 -0.218557 -3.39026 5 1.7768 0. -1
</event>
<event>
 4 80 1 -1 -1 -1
 11 -1 0 0 0 0 0 0 4.83971 4.83971 0 0. 9.
 -11 -1 0 0 0 0 0 0 -3.18278 3.18278 0 0. 9.
 15 1 1 2 0 0 -0.757514 -2.33203 3.38024 4.53828 1.7768 0. 1
 -15 1 1 2 0 0 0.757514 2.33203 -1.72331 3.48421 1.7768 0. -1
</event>
<event>
 4 80 1 -1 -1 -1
 11 -1 0 0 0 0 0 0 5 5 0 0. 9.
 -11 -1 0 0 0 0 0 0 -4.9413 4.9413 0 0. 9.
 15 1 1 2 0 0 -0.141517 1.75397 4.32504 4.99601 1.7768 0. -1
 -15 1 1 2 0 0 0.141517 -1.75397 -4.26634 4.94529 1.7768 0. 1
</event>
<event>
 4 80 1 -1 -1 -1
 11 -1 0 0 0 0 0 0 4.97749 4.97749 0 0. 9.
 -11 -1 0 0 0 0 0 0 -4.98233 4.98233 0 0. 9.
 15 1 1 2 0 0 3.71977 2.3236 -1.55354 4.98066 1.7768 0. 1
 -15 1 1 2 0 0 -3.71977 -2.3236 1.5487 4.97916 1.7768 0. -1
</event>
<event>
 4 80 1 -1 -1 -1
 11 -1 0 0 0 0 0 0 5 5 0 0. 9.
 -11 -1 0 0 0 0 0 0 -5 5 0 0. 9.
 15 1 1 2 0 0 -1.74186 2.83612 -3.28094 5 1.7768 0. -1
 -15 1 1 2 0 0 1.74186 -2.83612 3.28094 5 1.7768 0. 1
</event>
<event>
 4 80 1 -1 -1 -1
 11 -1 0 0 0 0 0 0 5 5 0 0. 9.
 -11 -1 0 0 0 0 0 0 -4.90233 4.90233 0 0. 9.
 15 1 1 2 0 0 3.79766 -1.27737 2.35112 4.97387 1.7768 0. -1
 -15 1 1 2 0 0 -3.79766 1.27737 -2.25345 4.92846 1.7768 0. 1
</event>
<event>
 4 80 1 -1 -1 -1
 11 -1 0 0 0 0 0 0 4.99626 4.99626 0 0. 9.
 -11 -1 0 0 0 0 0 0 -5 5 0 0. 9.
 15 1 1 2 0 0 1.44803 -0.877803 -4.35575 4.99976 1.7768 0. -1
 -15 1 1 2 0 0 -1.44803 0.877803 4.35201 4.9965 1.7768 0. 1
</event>
<event>
 4 80 1 -1 -1 -1
 11 -1 0 0 0 0 0 0 5 5 0 0. 9.
 -11 -1 0 0 0 0 0 0 -4.99873 4.99873 0 0. 9.
 15 1 1 2 0 0 -2.76093 -3.52035 -1.34857 4.99919 1.7768 0. 1
 -15 1 1 2 0 0 2.76093 3.52035 1.34984 4.99954 1.7768 0. -1
</event>
<event>
 4 80 1 -1 -1 -1
 11 -1 0 0 0 0 0 0 0.841436 0.841436 0 0. 9.
 -11 -1 0 0 0 0 0 0 -4.97119 4.97119 0 0. 9.
 15 1 1 2 0 0 -0.308202 -0.619759 -1.01474 2.16021 1.7768 0. 1
 -15 1 1 2 0 0 0.308202 0.619759 -3.11501 3.65241 1.7768 0. -1
</event>
<event>
 4 80 1 -1 -1 -1
 11 -1 0 0 0 0 0 0 4.99776 4.99776 0 0. 9.
 -11 -1 0 0 0 0 0 0 -5 5 0 0. 9.
 15 1 1 2 0 0 -1.61979 -3.4296 -2.72971 4.99949 1.7768 0. 1
 -15 1 1 2 0 0 1.61979 3.4296 2.72747 4.99827 1.7768 0. -1
</event>
<event>
 4 80 1 -1 -1 -1
 11 -1 0 0 0 0 0 0 4.9996 4.9996 0 0. 9.
 -11 -1 0 0 0 0 0 0 -4.99999 4.99999 0 0. 9.
 15 1 1 2 0 0 2.0567 -3.9576 -1.39578 4.99985 1.7768 0. 1
 -15 1 1 2 0 0 -2.0567 3.9576 1.39538 4.99974 1.7768 0. -1
</event>
<event>
 4 80 1 -1 -1 -1
 11 -1 0 0 0 0 0 0 5 5 0 0. 9.
 -11 -1 0 0 0 0 0 0 -5 5 0 0. 9.
 15 1 1 2 0 0 4.07145 1.99871 1.12725 5 1.7768 0. 1
 -15 1 1 2 0 0 -4.07145 -1.99871 -1.12725 5 1.7768 0. -1
</event>
<event>
 4 80 1 -1 -1 -1
 11 -1 0 0 0 0 0 0 5 5 0 0. 9.
 -11 -1 0 0 0 0 0 0 -4.99895 4.99895 0 0. 9.
 15 1 1 2 0 0 3.14797 1.64161 3.03901 4.99979 1.7768 0. 1
 -15 1 1 2 0 0 -3.14797 -1.64161 -3.03797 4.99916 1.7768 0. -1
</event>
<event>
 4 80 1 -1 -1 -1
 11 -1 0 0 0 0 0 0 5 5 0 0. 9.
 -11 -1 0 0 0 0 0 0 -5 5 0 0. 9.
 15 1 1 2 0 0 -0.979449 3.72498 -2.64716 5 1.7768 0. 1
 -15 1 1 2 0 0 0.979449 -3.72498 2.64716 5 1.7768 0. -1
</event>
<event>
 4 80 1 -1 -1 -1
 11 -1 0 0 0 0 0 0 4.98429 4.98429 0 0. 9.
 -11 -1 0 0 0 0 0 0 -5 5 0 0. 9.
 15 1 1 2 0 0 -3.12469 0.354068 -3.45382 4.99757 1.7768 0. -1
 -15 1 1 2 0 0 3.12469 -0.354068 3.43811 4.98672 1.7768 0. 1
</event>
<event>
 4 80 1 -1 -1 -1
 11 -1 0 0 0 0 0 0 5 5 0 0. 9.
 -11 -1 0 0 0 0 0 0 -5 5 0 0. 9.
 15 1 1 2 0 0 0.105996 0.801291 -4.60314 5 1.7768 0. 1
 -15 1 1 2 0 0 -0.105996 -0.801291 4.60315 5 1.7768 0. -1
</event>
<event>
 4 80 1 -1 -1 -1
 11 -1 0 0 0 0 0 0 4.9999 4.9999 0 0. 9.
 -11 -1 0 0 0 0 0 0 -3.87757 3.87757 0 0. 9.
 15 1 1 2 0 0 0.708081 -2.03407 -2.87092 4.00484 1.7768 0. 1
 -15 1 1 2 0 0 -0.708081 2.03407 3.99324 4.87263 1.7768 0. -1
</event>
<event>
 4 80 1 -1 -1 -1
 11 -1 0 0 0 0 0 0 5 5 0 0. 9.
 -11 -1 0 0 0 0 0 0 -5 5 0 0. 9.
 15 1 1 2 0 0 2.89252 2.02426 -3.06235 5 1.7768 0. 1
 -15 1 1 2 0 0 -2.89252 -2.02426 3.06235 5 1.7768 0. -1
</event>
<event>
 4 80 1 -1 -1 -1
 11 -1 0 0 0 0 0 0 4.96747 4.96747 0 0. 9.
 -11 -1 0 0 0 0 0 0 -4.99997 4.99997 0 0. 9.
 15 1 1 2 0 0 -2.40493 2.66164 -2.98467 4.9934 1.7768 0. -1
 -15 1 1 2 0 0 2.40493 -2.66164 2.95218 4.97404 1.7768 0. 1
</event>
<event>
 4 80 1 -1 -1 -1
 11 -1 0 0 0 0 0 0 1.2531 1.2531 0 0. 9.
 -11 -1 0 0 0 0 0 0 -5 5 0 0. 9.
 15 1 1 2 0 0 0.464322 -1.24287 -0.423537 2.25775 1.7768 0. 1
 -15 1 1 2 0 0 -0.464322 1.24287 -3.32336 3.99535 1.7768 0. -1
</event>
<event>
 4 80 1 -1 -1 -1
 11 -1 0 0 0 0 0 0 5 5 0 0. 9.
 -11 -1 0 0 0 0 0 0 -1.73161 1.73161 0 0. 9.
 15 1 1 2 0 0 -0.681012 -1.60708 3.42605 4.2358 1.7768 0. 1
 -15 1 1 2 0 0 0.681012 1.60708 -0.157665 2.49581 1.7768 0. -1
</event>
<event>
 4 80 1 -1 -1 -1
 11 -1 0 0 0 0 0 0 4.24135 4.24135 0 0. 9.
 -11 -1 0 0 0 0 0 0 -5 5 0 0. 9.
 15 1 1 2 0 0 1.70777 -3.63679 -1.76468 4.7344 1.7768 0. 1
 -15 1 1 2 0 0 -1.70777 3.63679 1.00603 4.50695 1.7768 0. -1
</event>
<event>
 4 80 1 -1 -1 -1
 11 -1 0 0 0 0 0 0 4.99137 4.99137 0 0. 9.
 -11 -1 0 0 0 0 0 0 -4.9998 4.9998 0 0. 9.
 15 1 1 2 0 0 3.71832 2.13466 1.84389 4.99403 1.7768 0. 1
 -15 1 1 2 0 0 -3.71832 -2.13466 -1.85232 4.99715 1.7768 0. -1
</event>
<event>
 4 80 1 -1 -1 -1
 11 -1 0 0 0 0 0 0 5 5 0 0. 9.
 -11 -1 0 0 0 0 0 0 -5 5 0 0. 9.
 15 1 1 2 0 0 -3.39806 -3.12243 0.738838 5 1.7768 0. 1
 -15 1 1 2 0 0 3.39806 3.12243 -0.738838 5 1.7768 0. -1
</event>
<event>
 4 80 1 -1 -1 -1
 11 -1 0 0 0 0 0 0 4.99988 4.99988 0 0. 9.
 -11 -1 0 0 0 0 0 0 -4.96512 4.96512 0 0. 9.
 15 1 1 2 0 0 -1.11032 -4.51738 -0.149417 4.98192 1.7768 0. -1
 -15 1 1 2 0 0 1.11032 4.51738 0.184177 4.98308 1.7768 0. 1
</event>
<event>
 4 80 1 -1 -1 -1
 11 -1 0 0 0 0 0 0 5 5 0 0. 9.
 -11 -1 0 0 0 0 0 0 -5 5 0 0. 9.
 15 1 1 2 0 0 -1.94783 4.03528 1.32843 5 1.7768 0. -1
 -15 1 1 2 0 0 1.94783 -4.03528 -1.32843 5 1.7768 0. 1
</event>
<event>
 4 80 1 -1 -1 -1
 11 -1 0 0 0 0 0 0 5 5 0 0. 9.
 -11 -1 0 0 0 0 0 0 -5 5 0 0. 9.
 15 1 1 2 0 0 -4.51339 -0.0268663 -1.2128 5 1.7768 0. 1
 -15 1 1 2 0 0 4.51339 0.0268663 1.2128 5 1.7768 0. -1
</event>
<event>
 4 80 1 -1 -1 -1
 11 -1 0 0 0 0 0 0 4.99772 4.99772 0 0. 9.
 -11 -1 0 0 0 0 0 0 -5 5 0 0. 9.
 15 1 1 2 0 0 -1.86996 -1.16574 -4.12123 4.9998 1.7768 0. 1
 -15 1 1 2 0 0 1.86996 1.16574 4.11895 4.99792 1.7768 0. -1
</event>
<event>
 4 80 1 -1 -1 -1
 11 -1 0 0 0 0 0 0 5 5 0 0. 9.
 -11 -1 0 0 0 0 0 0 -4.99999 4.99999 0 0. 9.
 15 1 1 2 0 0 0.351024 2.70159 -3.79742 4.99999 1.7768 0. 1
 -15 1 1 2 0 0 -0.351024 -2.70159 3.79743 5 1.7768 0. -1
</event>
<event>
 4 80 1 -1 -1 -1
 11 -1 0 0 0 0 0 0 0.760295 0.760295 0 0. 9.
 -11 -1 0 0 0 0 0 0 -4.99999 4.99999 0 0. 9.
 15 1 1 2 0 0 0.255235 -0.246146 -1.05667 2.09762 1.7768 0. 1
 -15 1 1 2 0 0 -0.255235 0.246146 -3.18303 3.66267 1.7768 0. -1
</event>
<event>
 4 80 1 -1 -1 -1
 11 -1 0 0 0 0 0 0 5 5 0 0. 9.
 -11 -1 0 0 0 0 0 0 -4.98805 4.98805 0 0. 9.
 15 1 1 2 0 0 0.249857 1.22071 -4.4918 4.98864 1.7768 0. -1
 -15 1 1 2 0 0 -0.249857 -1.22071 4.50375 4.9994 1.7768 0. 1
</event>
<event>
 4 80 1 -1 -1 -1
 11 -1 0 0 0 0 0 0 4.9658 4.9658 0 0. 9.
 -11 -1 0 0 0 0 0 0 -4.97208 4.97208 0 0. 9.
 15 1 1 2 0 0 2.52521 3.52522 1.64876 4.9679 1.7768 0. -1
 -15 1 1 2 0 0 -2.52521 -3.52522 -1.65504 4.96999 1.7768 0. 1
</event>
<event>
 4 80 1 -1 -1 -1
 11 -1 0 0 0 0 0 0 5 5 0 0. 9.
 -11 -1 0 0 0 0 0 0 -5 5 0 0. 9.
 15 1 1 2 0 0 -3.08881 2.91917 1.94422 5 1.7768 0. -1
 -15 1 1 2 0 0 3.08881 -2.91917 -1.94422 5 1.7768 0. 1
</event>
<event>
 4 80 1 -1 -1 -1
 11 -1 0 0 0 0 0 0 5 5 0 0. 9.
 -11 -1 0 0 0 0 0 0 -5 5 0 0. 9.
 15 1 1 2 0 0 -4.6453 -0.290842 -0.422954 5 1.7768 0. -1
 -15 1 1 2 0 0 4.6453 0.290842 0.422954 5 1.7768 0. 1
</event>
<event>
 4 80 1 -1 -1 -1
 11 -1 0 0 0 0 0 0 4.99995 4.99995 0 0. 9.
 -11 -1 0 0 0 0 0 0 -4.99998 4.99998 0 0. 9.
 15 1 1 2 0 0 1.54912 -1.83146 -4.01099 4.99998 1.7768 0. 1
 -15 1 1 2 0 0 -1.54912 1.83146 4.01096 4.99995 1.7768 0. -1
</event>
<event>
 4 80 1 -1 -1 -1
 11 -1 0 0 0 0 0 0 5 5 0 0. 9.
 -11 -1 0 0 0 0 0 0 -4.99935 4.99935 0 0. 9.
 15 1 1 2 0 0 0.290676 3.608 2.95614 4.99987 1.7768 0. -1
 -15 1 1 2 0 0 -0.290676 -3.608 -2.95549 4.99948 1.7768 0. 1
</event>
<event>
 4 80 1 -1 -1 -1
 11 -1 0 0 0 0 0 0 5 5 0 0. 9.
 -11 -1 0 0 0 0 0 0 -3.78092 3.78092 0 0. 9.
 15 1 1 2 0 0 -2.99243 2.16081 2.08089 4.59473 1.7768 0. 1
 -15 1 1 2 0 0 2.99243 -2.16081 -0.861808 4.18619 1.7768 0. -1
</event>
<event>
 4 80 1 -1 -1 -1
 11 -1 0 0 0 0 0 0 5 5 0 0. 9.
 -11 -1 0 0 0 0 0 0 -4.9778 4.9778 0 0. 9.
 15 1 1 2 0 0 0.827763 -2.26959 3.99797 4.99777 1.7768 0. 1
 -15 1 1 2 0 0 -0.827763 2.26959 -3.97577 4.98003 1.7768 0. -1
</event>
<event>
 4 80 1 -1 -1 -1
 11 -1 0 0 0 0 0 0 5 5 0 0. 9.
 -11 -1 0 0 0 0 0 0 -5 5 0 0. 9.
 15 1 1 2 0 0 -1.2869 -2.99237 -3.3514 5 1.7768 0. 1
 -15 1 1 2 0 0 1.2869 2.99237 3.3514 5 1.7768 0. -1
</event>
<event>
 4 80 1 -1 -1 -1
 11 -1 0 0 0 0 0 0 4.99998 4.99998 0 0. 9.
 -11 -1 0 0 0 0 0 0 -5 5 0 0. 9.
 15 1 1 2 0 0 1.99384 2.33004 3.5267 4.99998 1.7768 0. 1
 -15 1 1 2 0 0 -1.99384 -2.33004 -3.52672 5 1.7768 0. -1
</event>
<event>
 4 80 1 -1 -1 -1
 11 -1 0 0 0 0 0 0 5 5 0 0. 9.
 -11 -1 0 0 0 0 0 0 -3.88508 3.88508 0 0. 9.
 15 1 1 2 0 0 3.92715 0.914255 0.460267 4.43035 1.7768 0. 1
 -15 1 1 2 0 0 -3.92715 -0.914255 0.654649 4.45474 1.7768 0. -1
</event>
<event>
 4 80 1 -1 -1 -1
 11 -1 0 0 0 0 0 0 5 5 0 0. 9.
 -11 -1 0 0 0 0 0 0 -4.91298 4.91298 0 0. 9.
 15 1 1 2 0 0 2.37932 1.08661 -3.77308 4.92298 1.7768 0. 1
 -15 1 1 2 0 0 -2.37932 -1.08661 3.86011 4.98999 1.7768 0. -1
</event>
<event>
 4 80 1 -1 -1 -1
 11 -1 0 0 0 0 0 0 5 5 0 0. 9.
 -11 -1 0 0 0 0 0 0 -5 5 0 0. 9.
 15 1 1 2 0 0 1.29004 0.607155 4.45078 5 1.7768 0. -1
 -15 1 1 2 0 0 -1.29004 -0.607155 -4.45078 5 1.7768 0. 1
</event>
<event>
 4 80 1 -1 -1 -1
 11 -1 0 0 0 0 0 0 4.66388 4.66388 0 0. 9.
 -11 -1 0 0 0 0 0 0 -5 5 0 0. 9.
 15 1 1 2 0 0 -2.15244 -1.00391 -3.98099 4.96456 1.7768 0. 1
 -15 1 1 2 0 0 2.15244 1.00391 3.64487 4.69932 1.7768 0. -1
</event>
<event>
 4 80 1 -1 -1 -1
 11 -1 0 0 0 0 0 0 5 5 0 0. 9.
 -11 -1 0 0 0 0 0 0 -5 5 0 0. 9.
 15 1 1 2 0 0 1.84789 3.07757 2.99268 5 1.7768 0. -1
 -15 1 1 2 0 0 -1.84789 -3.07757 -2.99269 5 1.7768 0. 1
</event>
<event>
 4 80 1 -1 -1 -1
 11 -1 0 0 0 0 0 0 4.94431 4.94431 0 0. 9.
 -11 -1 0 0 0 0 0 0 -2.9674 2.9674 0 0. 9.
 15 1 1 2 0 0 2.23922 -1.23204 -1.3167 3.37986 1.7768 0. 1
 -15 1 1 2 0 0 -2.23922 1.23204 3.29361 4.53185 1.7768 0. -1
</event>
<event>
 4 80 1 -1 -1 -1
 11 -1 0 0 0 0 0 0 5 5 0 0. 9.
 -11 -1 0 0 0 0 0 0 -1.6274 1.6274 0 0. 9.
 15 1 1 2 0 0 2.01402 0.271685 2.75681 3.85847 1.7768 0. 1
 -15 1 1 2 0 0 -2.01402 -0.271685 0.615787 2.76893 1.7768 0. -1
</event>
<event>
 4 80 1 -1 -1 -1
 11 -1 0 0 0 0 0 0 5 5 0 0. 9.
 -11 -1 0 0 0 0 0 0 -5 5 0 0. 9.
 15 1 1 2 0 0 1.29269 -0.600566 -4.4509 5 1.7768 0. 1
 -15 1 1 2 0 0 -1.29269 0.600566 4.4509 5 1.7768 0. -1
</event>
<event>
 4 80 1 -1 -1 -1
 11 -1 0 0 0 0 0 0 4.99999 4.99999 0 0. 9.
 -11 -1 0 0 0 0 0 0 -5 5 0 0. 9.
 15 1 1 2 0 0 0.521942 -3.37087 -3.19485 5 1.7768 0. 1
 -15 1 1 2 0 0 -0.521942 3.37087 3.19484 5 1.7768 0. -1
</event>
<event>
 4 80 1 -1 -1 -1
 11 -1 0 0 0 0 0 0 4.53965 4.53965 0 0. 9.
 -11 -1 0 0 0 0 0 0 -4.50336 4.50336 0 0. 9.
 15 1 1 2 0 0 -2.90336 2.89375 -0.676558 4.51871 1.7768 0. 1
 -15 1 1 2 0 0 2.90336 -2.89375 0.712844 4.52429 1.7768 0. -1
</event>
<event>
 4 80 1 -1 -1 -1
 11 -1 0 0 0 0 0 0 5 5 0 0. 9.
 -11 -1 0 0 0 0 0 0 -5 5 0 0. 9.
 15 1 1 2 0 0 -0.291188 3.66736 -2.88235 5 1.7768 0. -1
 -15 1 1 2 0 0 0.291188 -3.66736 2.88235 5 1.7768 0. 1
</event>
<event>
 4 80 1 -1 -1 -1
 11 -1 0 0 0 0 0 0 5 5 0 0. 9.
 -11 -1 0 0 0 0 0 0 -5 5 0 0. 9.
 15 1 1 2 0 0 -2.42558 -1.44338 3.72498 5 1.7768 0. 1
 -15 1 1 2 0 0 2.42558 1.44338 -3.72498 5 1.7768 0. -1
</event>
<event>
 4 80 1 -1 -1 -1
 11 -1 0 0 0 0 0 0 5 5 0 0. 9.
 -11 -1 0 0 0 0 0 0 -4.83309 4.83309 0 0. 9.
 15 1 1 2 0 0 0.572036 -2.14888 -3.92496 4.8485 1.7768 0. 1
 -15 1 1 2 0 0 -0.572036 2.14888 4.09187 4.98458 1.7768 0. -1
</event>
<event>
 4 80 1 -1 -1 -1
 11 -1 0 0 0 0 0 0 5 5 0 0. 9.
 -11 -1 0 0 0 0 0 0 -3.77302 3.77302 0 0. 9.
 15 1 1 2 0 0 -2.30187 -1.97455 3.19027 4.74689 1.7768 0. -1
 -15 1 1 2 0 0 2.30187 1.97455 -1.96329 4.02612 1.7768 0. 1
</event>
<event>
 4 80 1 -1 -1 -1
 11 -1 0 0 0 0 0 0 5 5 0 0. 9.
 -11 -1 0 0 0 0 0 0 -5 5 0 0. 9.
 15 1 1 2 0 0 2.26448 -4.08415 0.184761 5 1.7768 0. 1
 -15 1 1 2 0 0 -2.26448 4.08415 -0.184761 5 1.7768 0. -1
</event>
<event>
 4 80 1 -1 -1 -1
 11 -1 0 0 0 0 0 0 4.99934 4.99934 0 0. 9.
 -11 -1 0 0 0 0 0 0 -5 5 0 0. 9.
 15 1 1 2 0 0 2.51695 -3.21333 2.27527 4.99952 1.7768 0. -1
 -15 1 1 2 0 0 -2.51695 3.21333 -2.27594 4.99982 1.7768 0. 1
</event>
<event>
 4 80 1 -1 -1 -1
 11 -1 0 0 0 0 0 0 4.89414 4.89414 0 0. 9.
 -11 -1 0 0 0 0 0 0 -4.99895 4.99895 0 0. 9.
 15 1 1 2 0 0 -2.36075 -2.35338 3.14094 4.91271 1.7768 0. 1
 -15 1 1 2 0 0 2.36075 2.35338 -3.24574 4.98037 1.7768 0. -1
</event>
<event>
 4 80 1 -1 -1 -1
 11 -1 0 0 0 0 0 0 4.85002 4.85002 0 0. 9.
 -11 -1 0 0 0 0 0 0 -4.99917 4.99917 0 0. 9.
 15 1 1 2 0 0 3.23862 -2.67824 -1.92592 4.95263 1.7768 0. -1
 -15 1 1 2 0 0 -3.23862 2.67824 1.77677 4.89656 1.7768 0. 1
</event>
<event>
 4 80 1 -1 -1 -1
 11 -1 0 0 0 0 0 0 5 5 0 0. 9.
 -11 -1 0 0 0 0 0 0 -5 5 0 0. 9.
 15 1 1 2 0 0 4.41734 -1.42896 -0.536171 5 1.7768 0. 1
 -15 1 1 2 0 0 -4.41734 1.42896 0.536171 5 1.7768 0. -1
</event>
<event>
 4 80 1 -1 -1 -1
 11 -1 0 0 0 0 0 0 5 5 0 0. 9.
 -11 -1 0 0 0 0 0 0 -4.95527 4.95527 0 0. 9.
 15 1 1 2 0 0 -2.39908 -0.767003 3.93069 4.9952 1.7768 0. 1
 -15 1 1 2 0 0 2.39908 0.767003 -3.88596 4.96007 1.7768 0. -1
</event>
<event>
 4 80 1 -1 -1 -1
 11 -1 0 0 0 0 0 0 4.98436 4.98436 0 0. 9.
 -11 -1 0 0 0 0 0 0 -5 5 0 0. 9.
 15 1 1 2 0 0 -0.290859 -0.423929 4.62897 4.98492 1.7768 0. 1
 -15 1 1 2 0 0 0.290859 0.423929 -4.64461 4.99944 1.7768 0. -1
</event>
<event>
 4 80 1 -1 -1 -1
 11 -1 0 0 0 0 0 0 4.99907 4.99907 0 0. 9.
 -11 -1 0 0 0 0 0 0 -4.99852 4.99852 0 0. 9.
 15 1 1 2 0 0 3.89124 2.47661 0.745175 4.99884 1.7768 0. 1
 -15 1 1 2 0 0 -3.89124 -2.47661 -0.74463 4.99875 1.7768 0. -1
</event>
<event>
 4 80 1 -1 -1 -1
 11 -1 0 0 0 0 0 0 5 5 0 0. 9.
 -11 -1 0 0 0 0 0 0 -5 5 0 0. 9.
 15 1 1 2 0 0 -2.07471 2.42046 -3.41749 5 1.7768 0. 1
 -15 1 1 2 0 0 2.07471 -2.42046 3.41749 5 1.7768 0. -1
</event>
<event>
 4 80 1 -1 -1 -1
 11 -1 0 0 0 0 0 0 4.71475 4.71475 0 0. 9.
 -11 -1 0 0 0 0 0 0 -5 5 0 0. 9.
 15 1 1 2 0 0 -3.15824 0.794616 -3.27609 4.94938 1.7768 0. -1
 -15 1 1 2 0 0 3.15824 -0.794616 2.99084 4.76536 1.7768 0. 1
</event>
<event>
 4 80 1 -1 -1 -1
 11 -1 0 0 0 0 0 0 5 5 0 0. 9.
 -11 -1 0 0 0 0 0 0 -3.77942 3.77942 0 0. 9.
 15 1 1 2 0 0 -0.173116 3.04173 3.17633 4.74646 1.7768 0. -1
 -15 1 1 2 0 0 0.173116 -3.04173 -1.95575 4.03296 1.7768 0. 1
</event>
<event>
 4 80 1 -1 -1 -1
 11 -1 0 0 0 0 0 0 4.99999 4.99999 0 0. 9.
 -11 -1 0 0 0 0 0 0 -4.94433 4.94433 0 0. 9.
 15 1 1 2 0 0 -1.02377 -1.79532 -4.13067 4.94888 1.7768 0. -1
 -15 1 1 2 0 0 1.02377 1.79532 4.18633 4.99544 1.7768 0. 1
</event>
<event>
 4 80 1 -1 -1 -1
 11 -1 0 0 0 0 0 0 5 5 0 0. 9.
 -11 -1 0 0 0 0 0 0 -5 5 0 0. 9.
 15 1 1 2 0 0 -3.36924 3.2008 0.495324 5 1.7768 0. 1
 -15 1 1 2 0 0 3.36924 -3.2008 -0.495324 5 1.7768 0. -1
</event>
<event>
 4 80 1 -1 -1 -1
 11 -1 0 0 0 0 0 0 4.99078 4.99078 0 0. 9.
 -11 -1 0 0 0 0 0 0 -4.9845 4.9845 0 0. 9.
 15 1 1 2 0 0 2.47188 -3.67753 1.4469 4.98855 1.7768 0. 1
 -15 1 1 2 0 0 -2.47188 3.67753 -1.44061 4.98673 1.7768 0. -1
</event>
<event>
 4 80 1 -1 -1 -1
 11 -1 0 0 0 0 0 0 5 5 0 0. 9.
 -11 -1 0 0 0 0 0 0 -5 5 0 0. 9.
 15 1 1 2 0 0 1.3201 -1.94678 4.03852 5 1.7768 0. 1
 -15 1 1 2 0 0 -1.3201 1.94678 -4.03852 5 1.7768 0. -1
</event>
<event>
 4 80 1 -1 -1 -1
 11 -1 0 0 0 0 0 0 5 5 0 0. 9.
 -11 -1 0 0 0 0 0 0 -4.98686 4.98686 0 0. 9.
 15 1 1 2 0 0 3.30181 3.21674 -0.71953 4.99247 1.7768 0. 1
 -15 1 1 2 0 0 -3.30181 -3.21674 0.732671 4.99438 1.7768 0. -1
</event>
<event>
 4 80 1 -1 -1 -1
 11 -1 0 0 0 0 0 0 5 5 0 0. 9.
 -11 -1 0 0 0 0 0 0 -4.83751 4.83751 0 0. 9.
 15 1 1 2 0 0 2.54726 0.853087 -3.63591 4.85735 1.7768 0. 1
 -15 1 1 2 0 0 -2.54726 -0.853087 3.79841 4.98015 1.7768 0. -1
</event>
<event>
 4 80 1 -1 -1 -1
 11 -1 0 0 0 0 0 0 5 5 0 0. 9.
 -11 -1 0 0 0 0 0 0 -5 5 0 0. 9.
 15 1 1 2 0 0 2.86412 0.150132 -3.69006 5 1.7768 0. 1
 -15 1 1 2 0 0 -2.86412 -0.150132 3.69006 5 1.7768 0. -1
</event>
<event>
 4 80 1 -1 -1 -1
 11 -1 0 0 0 0 0 0 5 5 0 0. 9.
 -11 -1 0 0 0 0 0 0 -5 5 0 0. 9.
 15 1 1 2 0 0 0.565141 -0.611054 -4.59886 5 1.7768 0. -1
 -15 1 1 2 0 0 -0.565141 0.611054 4.59886 5 1.7768 0. 1
</event>
<event>
 4 80 1 -1 -1 -1
 11 -1 0 0 0 0 0 0 4.60709 4.60709 0 0. 9.
 -11 -1 0 0 0 0 0 0 -4.99922 4.99922 0 0. 9.
 15 1 1 2 0 0 0.833262 -3.31279 -3.06293 4.92018 1.7768 0. -1
 -15 1 1 2 0 0 -0.833262 3.31279 2.67081 4.68613 1.7768 0. 1
</event>
<event>
 4 80 1 -1 -1 -1
 11 -1 0 0 0 0 0 0 5 5 0 0. 9.
 -11 -1 0 0 0 0 0 0 -4.99979 4.99979 0 0. 9.
 15 1 1 2 0 0 1.27252 0.101886 -4.49562 4.9998 1.7768 0. 1
 -15 1 1 2 0 0 -1.27252 -0.101886 4.49583 4.99999 1.7768 0. -1
</event>
<event>
 4 80 1 -1 -1 -1
 11 -1 0 0 0 0 0 0 2.83138 2.83138 0 0. 9.
 -11 -1 0 0 0 0 0 0 -5 5 0 0. 9.
 15 1 1 2 0 0 0.657795 -3.02455 0.155188 3.57245 1.7768 0. -1
 -15 1 1 2 0 0 -0.657795 3.02455 -2.32381 4.25892 1.7768 0. 1
</event>
<event>
 4 80 1 -1 -1 -1
 11 -1 0 0 0 0 0 0 5 5 0 0. 9.
 -11 -1 0 0 0 0 0 0 -4.99957 4.99957 0 0. 9.
 15 1 1 2 0 0 -4.09857 1.55594 -1.6187 4.99972 1.7768 0. -1
 -15 1 1 2 0 0 4.09857 -1.55594 1.61912 4.99986 1.7768 0. 1
</event>
<event>
 4 80 1 -1 -1 -1
 11 -1 0 0 0 0 0 0 5 5 0 0. 9.
 -11 -1 0 0 0 0 0 0 -5 5 0 0. 9.
 15 1 1 2 0 0 2.17015 3.04729 2.8012 5 1.7768 0. 1
 -15 1 1 2 0 0 -2.17015 -3.04729 -2.8012 5 1.7768 0. -1
</event>
<event>
 4 80 1 -1 -1 -1
 11 -1 0 0 0 0 0 0 5 5 0 0. 9.
 -11 -1 0 0 0 0 0 0 -5 5 0 0. 9.
 15 1 1 2 0 0 -1.97942 -4.08289 1.1199 5 1.7768 0. -1
 -15 1 1 2 0 0 1.97942 4.08289 -1.1199 5 1.7768 0. 1
</event>
<event>
 4 80 1 -1 -1 -1
 11 -1 0 0 0 0 0 0 4.99989 4.99989 0 0. 9.
 -11 -1 0 0 0 0 0 0 -5 5 0 0. 9.
 15 1 1 2 0 0 4.46227 -0.827363 -1.11599 4.99996 1.7768 0. 1
 -15 1 1 2 0 0 -4.46227 0.827363 1.11588 4.99993 1.7768 0. -1
</event>
<event>
 4 80 1 -1 -1 -1
 11 -1 0 0 0 0 0 0 5 5 0 0. 9.
 -11 -1 0 0 0 0 0 0 -5 5 0 0. 9.
 15 1 1 2 0 0 1.99444 0.209315 4.22145 5 1.7768 0. -1
 -15 1 1 2 0 0 -1.99444 -0.209315 -4.22145 5 1.7768 0. 1
</event>
<event>
 4 80 1 -1 -1 -1
 11 -1 0 0 0 0 0 0 3.77964 3.77964 0 0. 9.
 -11 -1 0 0 0 0 0 0 -4.99995 4.99995 0 0. 9.
 15 1 1 2 0 0 3.27339 2.19899 -1.04991 4.45092 1.7768 0. -1
 -15 1 1 2 0 0 -3.27339 -2.19899 -0.170403 4.32867 1.7768 0. 1
</event>
<event>
 4 80 1 -1 -1 -1
 11 -1 0 0 0 0 0 0 5 5 0 0. 9.
 -11 -1 0 0 0 0 0 0 -4.99924 4.99924 0 0. 9.
 15 1 1 2 0 0 -0.221175 4.17267 2.09284 4.99978 1.7768 0. 1
 -15 1 1 2 0 0 0.221175 -4.17267 -2.09207 4.99946 1.7768 0. -1
</event>
<event>
 4 80 1 -1 -1 -1
 11 -1 0 0 0 0 0 0 4.99998 4.99998 0 0. 9.
 -11 -1 0 0 0 0 0 0 -4.9969 4.9969 0 0. 9.
 15 1 1 2 0 0 3.37156 2.83895 1.55062 4.99892 1.7768 0. 1
 -15 1 1 2 0 0 -3.37156 -2.83895 -1.54753 4.99796 1.7768 0. -1
</event>
<event>
 4 80 1 -1 -1 -1
 11 -1 0 0 0 0 0 0 4.99995 4.99995 0 0. 9.
 -11 -1 0 0 0 0 0 0 -5 5 0 0. 9.
 15 1 1 2 0 0 -1.83934 4.29565 0.0791493 4.99998 1.7768 0. -1
 -15 1 1 2 0 0 1.83934 -4.29565 -0.0791965 4.99998 1.7768 0. 1
</event>
<event>
 4 80 1 -1 -1 -1
 11 -1 0 0 0 0 0 0 5 5 0 0. 9.
 -11 -1 0 0 0 0 0 0 -5 5 0 0. 9.
 15 1 1 2 0 0 0.796121 -3.2625 3.25031 5 1.7768 0. 1
 -15 1 1 2 0 0 -0.796121 3.2625 -3.25031 5 1.7768 0. -1
</event>
<event>
 4 80 1 -1 -1 -1
 11 -1 0 0 0 0 0 0 5 5 0 0. 9.
 -11 -1 0 0 0 0 0 0 -5 5 0 0. 9.
 15 1 1 2 0 0 -1.53414 -3.31315 2.91748 5 1.7768 0. -1
 -15 1 1 2 0 0 1.53414 3.31315 -2.91748 5 1.7768 0. 1
</event>
<event>
 4 80 1 -1 -1 -1
 11 -1 0 0 0 0 0 0 4.38947 4.38947 0 0. 9.
 -11 -1 0 0 0 0 0 0 -4.99952 4.99952 0 0. 9.
 15 1 1 2 0 0 3.33334 2.71549 0.246076 4.65869 1.7768 0. 1
 -15 1 1 2 0 0 -3.33334 -2.71549 -0.856128 4.7303 1.7768 0. -1
</event>
<event>
 4 80 1 -1 -1 -1
 11 -1 0 0 0 0 0 0 4.94568 4.94568 0 0. 9.
 -11 -1 0 0 0 0 0 0 -2.26017 2.26017 0 0. 9.
 15 1 1 2 0 0 -1.46022 -1.10376 -0.985981 2.73504 1.7768 0. 1
 -15 1 1 2 0 0 1.46022 1.10376 3.6715 4.47081 1.7768 0. -1
</event>
<event>
 4 80 1 -1 -1 -1
 11 -1 0 0 0 0 0 0 4.99996 4.99996 0 0. 9.
 -11 -1 0 0 0 0 0 0 -5 5 0 0. 9.
 15 1 1 2 0 0 -1.84028 -3.39777 -2.62882 4.99999 1.7768 0. -1
 -15 1 1 2 0 0 1.84028 3.39777 2.62879 4.99997 1.7768 0. 1
</event>
<event>
 4 80 1 -1 -1 -1
 11 -1 0 0 0 0 0 0 3.29357 3.29357 0 0. 9.
 -11 -1 0 0 0 0 0 0 -5 5 0 0. 9.
 15 1 1 2 0 0 -0.838288 -0.549517 -4.43782 4.88433 1.7768 0. -1
 -15 1 1 2 0 0 0.838288 0.549517 2.73139 3.40924 1.7768 0. 1
</event>
<event>
 4 80 1 -1 -1 -1
 11 -1 0 0 0 0 0 0 5 5 0 0. 9.
 -11 -1 0 0 0 0 0 0 -4.95389 4.95389 0 0. 9.
 15 1 1 2 0 0 3.37118 0.112277 3.22219 4.99176 1.7768 0. 1
 -15 1 1 2 0 0 -3.37118 -0.112277 -3.17609 4.96213 1.7768 0. -1
</event>
<event>
 4 80 1 -1 -1 -1
 11 -1 0 0 0 0 0 0 5 5 0 0. 9.
 -11 -1 0 0 0 0 0 0 -4.99996 4.99996 0 0. 9.
 15 1 1 2 0 0 3.55147 -1.78608 -2.45742 4.99997 1.7768 0. -1
 -15 1 1 2 0 0 -3.55147 1.78608 2.45746 4.99999 1.7768 0. 1
</event>
<event>
 4 80 1 -1 -1 -1
 11 -1 0 0 0 0 0 0 5 5 0 0. 9.
 -11 -1 0 0 0 0 0 0 -5 5 0 0. 9.
 15 1 1 2 0 0 -1.40848 0.415816 4.43684 5 1.7768 0. -1
 -15 1 1 2 0 0 1.40848 -0.415816 -4.43684 5 1.7768 0. 1
</event>
<event>
 4 80 1 -1 -1 -1
 11 -1 0 0 0 0 0 0 5 5 0 0. 9.
 -11 -1 0 0 0 0 0 0 -4.82911 4.82911 0 0. 9.
 15 1 1 2 0 0 -0.557791 -4.54716 0.0831165 4.91452 1.7768 0. -1
 -15 1 1 2 0 0 0.557791 4.54716 0.0877713 4.9146 1.7768 0. 1
</event>
<event>
 4 80 1 -1 -1 -1
 11 -1 0 0 0 0 0 0 5 5 0 0. 9.
 -11 -1 0 0 0 0 0 0 -5 5 0 0. 9.
 15 1 1 2 0 0 2.9245 1.6606 3.24531 5 1.7768 0. 1
 -15 1 1 2 0 0 -2.9245 -1.6606 -3.24531 5 1.7768 0. -1
</event>
<event>
 4 80 1 -1 -1 -1
 11 -1 0 0 0 0 0 0 1.93747 1.93747 0 0. 9.
 -11 -1 0 0 0 0 0 0 -4.98477 4.98477 0 0. 9.
 15 1 1 2 0 0 1.50153 -1.59104 -0.0655228 2.81922 1.7768 0. -1
 -15 1 1 2 0 0 -1.50153 1.59104 -2.98178 4.10301 1.7768 0. 1
</event>
<event>
 4 80 1 -1 -1 -1
 11 -1 0 0 0 0 0 0 2.86952 2.86952 0 0. 9.
 -11 -1 0 0 0 0 0 0 -5 5 0 0. 9.
 15 1 1 2 0 0 -2.39669 0.914554 -3.29546 4.53854 1.7768 0. -1
 -15 1 1 2 0 0 2.39669 -0.914554 1.16498 3.33098 1.7768 0. 1
</event>
<event>
 4 80 1 -1 -1 -1
 11 -1 0 0 0 0 0 0 5 5 0 0. 9.
 -11 -1 0 0 0 0 0 0 -5 5 0 0. 9.
 15 1 1 2 0 0 0.54753 -0.288465 -4.63241 5 1.7768 0. -1
 -15 1 1 2 0 0 -0.54753 0.288465 4.63241 5 1.7768 0. 1
</event>
<event>
 4 80 1 -1 -1 -1
 11 -1 0 0 0 0 0 0 5 5 0 0. 9.
 -11 -1 0 0 0 0 0 0 -4.99998 4.99998 0 0. 9.
 15 1 1 2 0 0 1.02242 -4.55618 0.194974 4.99999 1.7768 0. -1
 -15 1 1 2 0 0 -1.02242 4.55618 -0.194955 4.99999 1.7768 0. 1
</event>
<event>
 4 80 1 -1 -1 -1
 11 -1 0 0 0 0 0 0 4.90165 4.90165 0 0. 9.
 -11 -1 0 0 0 0 0 0 -5 5 0 0. 9.
 15 1 1 2 0 0 -4.0354 1.55869 -1.67301 4.96695 1.7768 0. -1
 -15 1 1 2 0 0 4.0354 -1.55869 1.57466 4.9347 1.7768 0. 1
</event>
<event>
 4 80 1 -1 -1 -1
 11 -1 0 0 0 0 0 0 4.99462 4.99462 0 0. 9.
 -11 -1 0 0 0 0 0 0 -4.99998 4.99998 0 0. 9.
 15 1 1 2 0 0 -4.48942 1.06287 0.725836 4.99691 1.7768 0. 1
 -15 1 1 2 0 0 4.48942 -1.06287 -0.731192 4.99769 1.7768 0. -1
</event>
<event>
 4 80 1 -1 -1 -1
 11 -1 0 0 0 0 0 0 4.99576 4.99576 0 0. 9.
 -11 -1 0 0 0 0 0 0 -4.48094 4.48094 0 0. 9.
 15 1 1 2 0 0 -3.82895 -1.21575 2.01759 4.83397 1.7768 0. -1
 -15 1 1 2 0 0 3.82895 1.21575 -1.50276 4.64273 1.7768 0. 1
</event>
<event>
 4 80 1 -1 -1 -1
 11 -1 0 0 0 0 0 0 5 5 0 0. 9.
 -11 -1 0 0 0 0 0 0 -5 5 0 0. 9.
 15 1 1 2 0 0 2.10376 -3.60017 2.11075 5 1.7768 0. -1
 -15 1 1 2 0 0 -2.10376 3.60017 -2.11074 5 1.7768 0. 1
</event>
<event>
 4 80 1 -1 -1 -1
 11 -1 0 0 0 0 0 0 5 5 0 0. 9.
 -11 -1 0 0 0 0 0 0 -5 5 0 0. 9.
 15 1 1 2 0 0 2.10528 -3.76379 1.8011 5 1.7768 0. -1
 -15 1 1 2 0 0 -2.10528 3.76379 -1.8011 5 1.7768 0. 1
</event>
<event>
 4 80 1 -1 -1 -1
 11 -1 0 0 0 0 0 0 4.21088 4.21088 0 0. 9.
 -11 -1 0 0 0 0 0 0 -4.99981 4.99981 0 0. 9.
 15 1 1 2 0 0 -0.144194 0.867817 -4.5476 4.96108 1.7768 0. 1
 -15 1 1 2 0 0 0.144194 -0.867817 3.75867 4.24962 1.7768 0. -1
</event>
<event>
 4 80 1 -1 -1 -1
 11 -1 0 0 0 0 0 0 4.99587 4.99587 0 0. 9.
 -11 -1 0 0 0 0 0 0 -4.90299 4.90299 0 0. 9.
 15 1 1 2 0 0 -3.47564 0.931444 -2.85012 4.92226 1.7768 0. -1
 -15 1 1 2 0 0 3.47564 -0.931444 2.943 4.97661 1.7768 0. 1
</event>
<event>
 4 80 1 -1 -1 -1
 11 -1 0 0 0 0 0 0 5 5 0 0. 9.
 -11 -1 0 0 0 0 0 0 -5 5 0 0. 9.
 15 1 1 2 0 0 0.809276 1.85772 -4.21144 5 1.7768 0. 1
 -15 1 1 2 0 0 -0.809276 -1.85772 4.21144 5 1.7768 0. -1
</event>
<event>
 4 80 1 -1 -1 -1
 11 -1 0 0 0 0 0 0 5 5 0 0. 9.
 -11 -1 0 0 0 0 0 0 -4.99999 4.99999 0 0. 9.
 15 1 1 2 0 0 1.53336 3.85015 2.16042 5 1.7768 0. 1
 -15 1 1 2 0 0 -1.53336 -3.85015 -2.16041 4.99999 1.7768 0. -1
</event>
<event>
 4 80 1 -1 -1 -1
 11 -1 0 0 0 0 0 0 4.99752 4.99752 0 0. 9.
 -11 -1 0 0 0 0 0 0 -4.99991 4.99991 0 0. 9.
 15 1 1 2 0 0 -3.81069 -0.424419 -2.67102 4.99936 1.7768 0. -1
 -15 1 1 2 0 0 3.81069 0.424419 2.66863 4.99808 1.7768 0. 1
</event>
<event>
 4 80 1 -1 -1 -1
 11 -1 0 0 0 0 0 0 4.95632 4.95632 0 0. 9.
 -11 -1 0 0 0 0 0 0 -0.656304 0.656304 0 0. 9.
 15 1 1 2 0 0 -0.0483567 -0.258016 2.40195 2.99934 1.7768 0. -1
 -15 1 1 2 0 0 0.0483567 0.258016 1.89807 2.61329 1.7768 0. 1
</event>
<event>
 4 80 1 -1 -1 -1
 11 -1 0 0 0 0 0 0 5 5 0 0. 9.
 -11 -1 0 0 0 0 0 0 -5 5 0 0. 9.
 15 1 1 2 0 0 -1.38832 -3.29085 3.01415 5 1.7768 0. 1
 -15 1 1 2 0 0 1.38832 3.29085 -3.01415 5 1.7768 0. -1
</event>
<event>
 4 80 1 -1 -1 -1
 11 -1 0 0 0 0 0 0 1.55573 1.55573 0 0. 9.
 -11 -1 0 0 0 0 0 0 -5 5 0 0. 9.
 15 1 1 2 0 0 1.44882 -0.530086 -3.48146 4.20219 1.7768 0. 1
 -15 1 1 2 0 0 -1.44882 0.530086 0.0371969 2.35355 1.7768 0. -1
</event>
<event>
 4 80 1 -1 -1 -1
 11 -1 0 0 0 0 0 0 5 5 0 0. 9.
 -11 -1 0 0 0 0 0 0 -4.99859 4.99859 0 0. 9.
 15 1 1 2 0 0 0.935732 -2.354 -3.92591 4.99874 1.7768 0. -1
 -15 1 1 2 0 0 -0.935732 2.354 3.92732 4.99985 1.7768 0. 1
</event>
<event>
 4 80 1 -1 -1 -1
 11 -1 0 0 0 0 0 0 5 5 0 0. 9.
 -11 -1 0 0 0 0 0 0 -5 5 0 0. 9.
 15 1 1 2 0 0 -0.604251 -3.92589 -2.46263 5 1.7768 0. -1
 -15 1 1 2 0 0 0.604251 3.92589 2.46263 5 1.7768 0. 1
</event>
<event>
 4 80 1 -1 -1 -1
 11 -1 0 0 0 0 0 0 5 5 0 0. 9.
 -11 -1 0 0 0 0 0 0 -5 5 0 0. 9.
 15 1 1 2 0 0 -0.497058 4.16196 -2.0672 5 1.7768 0. 1
 -15 1 1 2 0 0 0.497058 -4.16196 2.0672 5 1.7768 0. -1
</event>
<event>
 4 80 1 -1 -1 -1
 11 -1 0 0 0 0 0 0 5 5 0 0. 9.
 -11 -1 0 0 0 0 0 0 -5 5 0 0. 9.
 15 1 1 2 0 0 2.53559 -2.94728 -2.59357 5 1.7768 0. 1
 -15 1 1 2 0 0 -2.53559 2.94728 2.59357 5 1.7768 0. -1
</event>
<event>
 4 80 1 -1 -1 -1
 11 -1 0 0 0 0 0 0 4.93724 4.93724 0 0. 9.
 -11 -1 0 0 0 0 0 0 -5 5 0 0. 9.
 15 1 1 2 0 0 0.935644 -0.262244 -4.56846 4.99727 1.7768 0. 1
 -15 1 1 2 0 0 -0.935644 0.262244 4.5057 4.93996 1.7768 0. -1
</event>
<event>
 4 80 1 -1 -1 -1
 11 -1 0 0 0 0 0 0 5 5 0 0. 9.
 -11 -1 0 0 0 0 0 0 -5 5 0 0. 9.
 15 1 1 2 0 0 3.63968 -1.82029 -2.29816 5 1.7768 0. -1
 -15 1 1 2 0 0 -3.63968 1.82029 2.29816 5 1.7768 0. 1
</event>
<event>
 4 80 1 -1 -1 -1
 11 -1 0 0 0 0 0 0 4.98647 4.98647 0 0. 9.
 -11 -1 0 0 0 0 0 0 -4.06053 4.06053 0 0. 9.
 15 1 1 2 0 0 0.629162 -2.17646 -3.0132 4.16772 1.7768 0. -1
 -15 1 1 2 0 0 -0.629162 2.17646 3.93914 4.87928 1.7768 0. 1
</event>
<event>
 4 80 1 -1 -1 -1
 11 -1 0 0 0 0 0 0 4.55073 4.55073 0 0. 9.
 -11 -1 0 0 0 0 0 0 -5 5 0 0. 9.
 15 1 1 2 0 0 2.24651 1.2481 -3.83298 4.9451 1.7768 0. 1
 -15 1 1 2 0 0 -2.24651 -1.2481 3.38372 4.60563 1.7768 0. -1
</event>
<event>
 4 80 1 -1 -1 -1
 11 -1 0 0 0 0 0 0 5 5 0 0. 9.
 -11 -1 0 0 0 0 0 0 -5 5 0 0. 9.
 15 1 1 2 0 0 -1.67326 0.469234 4.33847 5 1.7768 0. 1
 -15 1 1 2 0 0 1.67326 -0.469234 -4.33847 5 1.7768 0. -1
</event>
<event>
 4 80 1 -1 -1 -1
 11 -1 0 0 0 0 0 0 4.99846 4.99846 0 0. 9.
 -11 -1 0 0 0 0 0 0 -4.99202 4.99202 0 0. 9.
 15 1 1 2 0 0 -2.01777 1.97699 3.72005 4.99764 1.7768 0. -1
 -15 1 1 2 0 0 2.01777 -1.97699 -3.71361 4.99285 1.7768 0. 1
</event>
<event>
 4 80 1 -1 -1 -1
 11 -1 0 0 0 0 0 0 5 5 0 0. 9.
 -11 -1 0 0 0 0 0 0 -5 5 0 0. 9.
 15 1 1 2 0 0 1.74991 -1.50273 4.06471 5 1.7768 0. 1
 -15 1 1 2 0 0 -1.74991 1.50273 -4.06471 5 1.7768 0. -1
</event>
<event>
 4 80 1 -1 -1 -1
 11 -1 0 0 0 0 0 0 5 5 0 0. 9.
 -11 -1 0 0 0 0 0 0 -2.38266 2.38266 0 0. 9.
 15 1 1 2 0 0 2.25093 -0.361332 -0.708713 2.97611 1.7768 0. 1
 -15 1 1 2 0 0 -2.25093 0.361332 3.32605 4.40654 1.7768 0. -1
</event>
<event>
 4 80 1 -1 -1 -1
 11 -1 0 0 0 0 0 0 5 5 0 0. 9.
 -11 -1 0 0 0 0 0 0 -3.85691 3.85691 0 0. 9.
 15 1 1 2 0 0 1.00408 -2.17814 3.81964 4.84766 1.7768 0. -1
 -15 1 1 2 0 0 -1.00408 2.17814 -2.67655 4.00925 1.7768 0. 1
</event>
<event>
 4 80 1 -1 -1 -1
 11 -1 0 0 0 0 0 0 5 5 0 0. 9.
 -11 -1 0 0 0 0 0 0 -5 5 0 0. 9.
 15 1 1 2 0 0 -1.22488 -4.20699 -1.62578 5 1.7768 0. 1
 -15 1 1 2 0 0 1.22488 4.20699 1.62578 5 1.7768 0. -1
</event>
<event>
 4 80 1 -1 -1 -1
 11 -1 0 0 0 0 0 0 5 5 0 0. 9.
 -11 -1 0 0 0 0 0 0 -5 5 0 0. 9.
 15 1 1 2 0 0 2.21203 4.09896 0.384366 5 1.7768 0. 1
 -15 1 1 2 0 0 -2.21203 -4.09896 -0.384364 5 1.7768 0. -1
</event>
<event>
 4 80 1 -1 -1 -1
 11 -1 0 0 0 0 0 0 5 5 0 0. 9.
 -11 -1 0 0 0 0 0 0 -4.99999 4.99999 0 0. 9.
 15 1 1 2 0 0 0.0634016 -1.67422 -4.36293 4.99999 1.7768 0. -1
 -15 1 1 2 0 0 -0.0634016 1.67422 4.36294 5 1.7768 0. 1
</event>
<event>
 4 80 1 -1 -1 -1
 11 -1 0 0 0 0 0 0 4.97772 4.97772 0 0. 9.
 -11 -1 0 0 0 0 0 0 -5 5 0 0. 9.
 15 1 1 2 0 0 -0.122876 4.42292 1.45634 4.98558 1.7768 0. -1
 -15 1 1 2 0 0 0.122876 -4.42292 -1.47862 4.99214 1.7768 0. 1
</event>
<event>
 4 80 1 -1 -1 -1
 11 -1 0 0 0 0 0 0 3.39542 3.39542 0 0. 9.
 -11 -1 0 0 0 0 0 0 -5 5 0 0. 9.
 15 1 1 2 0 0 -0.594923 -1.11563 2.75919 3.51702 1.7768 0. -1
 -15 1 1 2 0 0 0.594923 1.11563 -4.36377 4.8784 1.7768 0. 1
</event>
<event>
 4 80 1 -1 -1 -1
 11 -1 0 0 0 0 0 0 4.7075 4.7075 0 0. 9.
 -11 -1 0 0 0 0 0 0 -5 5 0 0. 9.
 15 1 1 2 0 0 1.32639 1.24187 3.9882 4.72917 1.7768 0. -1
 -15 1 1 2 0 0 -1.32639 -1.24187 -4.28071 4.97833 1.7768 0. 1
</event>
<event>
 4 80 1 -1 -1 -1
 11 -1 0 0 0 0 0 0 4.83934 4.83934 0 0. 9.
 -11 -1 0 0 0 0 0 0 -5 5 0 0. 9.
 15 1 1 2 0 0 -2.77408 -2.9793 -2.1942 4.95419 1.7768 0. 1
 -15 1 1 2 0 0 2.77408 2.9793 2.03354 4.88515 1.7768 0. -1
</event>
<event>
 4 80 1 -1 -1 -1
 11 -1 0 0 0 0 0 0 5 5 0 0. 9.
 -11 -1 0 0 0 0 0 0 -4.99998 4.99998 0 0. 9.
 15 1 1 2 0 0 -1.75365 -1.91353 -3.88654 4.99998 1.7768 0. 1
 -15 1 1 2 0 0 1.75365 1.91353 3.88656 5 1.7768 0. -1
</event>
<event>
 4 80 1 -1 -1 -1
 11 -1 0 0 0 0 0 0 5 5 0 0. 9.
 -11 -1 0 0 0 0 0 0 -5 5 0 0. 9.
 15 1 1 2 0 0 2.79331 -1.06794 3.59154 5 1.7768 0. -1
 -15 1 1 2 0 0 -2.79331 1.06794 -3.59155 5 1.7768 0. 1
</event>
<event>
 4 80 1 -1 -1 -1
 11 -1 0 0 0 0 0 0 5 5 0 0. 9.
 -11 -1 0 0 0 0 0 0 -5 5 0 0. 9.
 15 1 1 2 0 0 3.33802 1.47153 2.92138 5 1.7768 0. -1
 -15 1 1 2 0 0 -3.33802 -1.47153 -2.92138 5 1.7768 0. 1
</event>
<event>
 4 80 1 -1 -1 -1
 11 -1 0 0 0 0 0 0 5 5 0 0. 9.
 -11 -1 0 0 0 0 0 0 -5 5 0 0. 9.
 15 1 1 2 0 0 3.39811 3.06659 0.943994 5 1.7768 0. 1
 -15 1 1 2 0 0 -3.39811 -3.06659 -0.943996 5 1.7768 0. -1
</event>
<event>
 4 80 1 -1 -1 -1
 11 -1 0 0 0 0 0 0 5 5 0 0. 9.
 -11 -1 0 0 0 0 0 0 -5 5 0 0. 9.
 15 1 1 2 0 0 -3.9642 1.29892 -2.10718 5 1.7768 0. -1
 -15 1 1 2 0 0 3.9642 -1.29892 2.10718 5 1.7768 0. 1
</event>
<event>
 4 80 1 -1 -1 -1
 11 -1 0 0 0 0 0 0 4.99302 4.99302 0 0. 9.
 -11 -1 0 0 0 0 0 0 -4.99997 4.99997 0 0. 9.
 15 1 1 2 0 0 -1.95165 3.81781 1.84657 4.99521 1.7768 0. -1
 -15 1 1 2 0 0 1.95165 -3.81781 -1.85352 4.99778 1.7768 0. 1
</event>
<event>
 4 80 1 -1 -1 -1
 11 -1 0 0 0 0 0 0 4.13839 4.13839 0 0. 9.
 -11 -1 0 0 0 0 0 0 -5 5 0 0. 9.
 15 1 1 2 0 0 2.92734 -0.413867 2.54787 4.28835 1.7768 0. 1
 -15 1 1 2 0 0 -2.92734 0.413867 -3.40948 4.85004 1.7768 0. -1
</event>
<event>
 4 80 1 -1 -1 -1
 11 -1 0 0 0 0 0 0 4.50937 4.50937 0 0. 9.
 -11 -1 0 0 0 0 0 0 -5 5 0 0. 9.
 15 1 1 2 0 0 -1.00161 1.9448 -4.07188 4.95211 1.7768 0. -1
 -15 1 1 2 0 0 1.00161 -1.9448 3.58125 4.55725 1.7768 0. 1
</event>
<event>
 4 80 1 -1 -1 -1
 11 -1 0 0 0 0 0 0 5 5 0 0. 9.
 -11 -1 0 0 0 0 0 0 -5 5 0 0. 9.
 15 1 1 2 0 0 3.56614 -1.47624 2.63546 5 1.7768 0. -1
 -15 1 1 2 0 0 -3.56614 1.47624 -2.63546 5 1.7768 0. 1
</event>
<event>
 4 80 1 -1 -1 -1
 11 -1 0 0 0 0 0 0 1.8602 1.8602 0 0. 9.
 -11 -1 0 0 0 0 0 0 -5 5 0 0. 9.
 15 1 1 2 0 0 1.01552 -2.07001 -2.59275 3.89824 1.7768 0. 1
 -15 1 1 2 0 0 -1.01552 2.07001 -0.547049 2.96196 1.7768 0. -1
</event>
<event>
 4 80 1 -1 -1 -1
 11 -1 0 0 0 0 0 0 4.70752 4.70752 0 0. 9.
 -11 -1 0 0 0 0 0 0 -5 5 0 0. 9.
 15 1 1 2 0 0 -0.844749 2.19441 -4.00167 4.96992 1.7768 0. 1
 -15 1 1 2 0 0 0.844749 -2.19441 3.70918 4.7376 1.7768 0. -1
</event>
<event>
 4 80 1 -1 -1 -1
 11 -1 0 0 0 0 0 0 5 5 0 0. 9.
 -11 -1 0 0 0 0 0 0 -5 5 0 0. 9.
 15 1 1 2 0 0 -1.97311 -2.81763 -3.16387 5 1.7768 0. -1
 -15 1 1 2 0 0 1.97311 2.81763 3.16387 5 1.7768 0. 1
</event>
<event>
 4 80 1 -1 -1 -1
 11 -1 0 0 0 0 0 0 4.99989 4.99989 0 0. 9.
 -11 -1 0 0 0 0 0 0 -4.99873 4.99873 0 0. 9.
 15 1 1 2 0 0 1.18992 3.81721 2.41892 4.99959 1.7768 0. -1
 -15 1 1 2 0 0 -1.18992 -3.81721 -2.41776 4.99903 1.7768 0. 1
</event>
<event>
 4 80 1 -1 -1 -1
 11 -1 0 0 0 0 0 0 5 5 0 0. 9.
 -11 -1 0 0 0 0 0 0 -4.99998 4.99998 0 0. 9.
 15 1 1 2 0 0 1.73152 -3.1095 3.02904 5 1.7768 0. -1
 -15 1 1 2 0 0 -1.73152 3.1095 -3.02902 4.99998 1.7768 0. 1
</event>
<event>
 4 80 1 -1 -1 -1
 11 -1 0 0 0 0 0 0 4.99874 4.99874 0 0. 9.
 -11 -1 0 0 0 0 0 0 -5 5 0 0. 9.
 15 1 1 2 0 0 2.07886 3.27105 2.60984 4.99904 1.7768 0. 1
 -15 1 1 2 0 0 -2.07886 -3.27105 -2.6111 4.9997 1.7768 0. -1
</event>
<event>
 4 80 1 -1 -1 -1
 11 -1 0 0 0 0 0 0 5 5 0 0. 9.
 -11 -1 0 0 0 0 0 0 -5 5 0 0. 9.
 15 1 1 2 0 0 -0.888641 3.59473 -2.8514 5 1.7768 0. 1
 -15 1 1 2 0 0 0.888641 -3.59473 2.8514 5 1.7768 0. -1
</event>
<event>
 4 80 1 -1 -1 -1
 11 -1 0 0 0 0 0 0 4.99965 4.99965 0 0. 9.
 -11 -1 0 0 0 0 0 0 -3.13419 3.13419 0 0. 9.
 15 1 1 2 0 0 3.26138 -0.481015 -0.384623 3.76479 1.7768 0. 1
 -15 1 1 2 0 0 -3.26138 0.481015 2.25008 4.36905 1.7768 0. -1
</event>
<event>
 4 80 1 -1 -1 -1
 11 -1 0 0 0 0 0 0 5 5 0 0. 9.
 -11 -1 0 0 0 0 0 0 -5 5 0 0. 9.
 15 1 1 2 0 0 2.52181 0.0098157 3.9348 5 1.7768 0. 1
 -15 1 1 2 0 0 -2.52181 -0.0098157 -3.9348 5 1.7768 0. -1
</event>
<event>
 4 80 1 -1 -1 -1
 11 -1 0 0 0 0 0 0 4.99998 4.99998 0 0. 9.
 -11 -1 0 0 0 0 0 0 -4.99998 4.99998 0 0. 9.
 15 1 1 2 0 0 0.873479 -4.51182 0.850092 4.99998 1.7768 0. -1
 -15 1 1 2 0 0 -0.873479 4.51182 -0.850093 4.99998 1.7768 0. 1
</event>
<event>
 4 80 1 -1 -1 -1
 11 -1 0 0 0 0 0 0 3.94709 3.94709 0 0. 9.
 -11 -1 0 0 0 0 0 0 -5 5 0 0. 9.
 15 1 1 2 0 0 -4.01243 -0.0271513 0.16929 4.39167 1.7768 0. -1
 -15 1 1 2 0 0 4.01243 0.0271513 -1.2222 4.55542 1.7768 0. 1
</event>
<event>
 4 80 1 -1 -1 -1
 11 -1 0 0 0 0 0 0 5 5 0 0. 9.
 -11 -1 0 0 0 0 0 0 -5 5 0 0. 9.
 15 1 1 2 0 0 -0.72651 0.94328 -4.51937 5 1.7768 0. -1
 -15 1 1 2 0 0 0.72651 -0.94328 4.51937 5 1.7768 0. 1
</event>
<event>
 4 80 1 -1 -1 -1
 11 -1 0 0 0 0 0 0 5 5 0 0. 9.
 -11 -1 0 0 0 0 0 0 -4.99653 4.99653 0 0. 9.
 15 1 1 2 0 0 3.11125 -3.42245 -0.655463 4.99804 1.7768 0. 1
 -15 1 1 2 0 0 -3.11125 3.42245 0.658929 4.99849 1.7768 0. -1
</event>
<event>
 4 80 1 -1 -1 -1
 11 -1 0 0 0 0 0 0 5 5 0 0. 9.
 -11 -1 0 0 0 0 0 0 -5 5 0 0. 9.
 15 1 1 2 0 0 1.08538 3.80388 2.48892 5 1.7768 0. -1
 -15 1 1 2 0 0 -1.08538 -3.80388 -2.48892 5 1.7768 0. 1
</event>
<event>
 4 80 1 -1 -1 -1
 11 -1 0 0 0 0 0 0 5 5 0 0. 9.
 -11 -1 0 0 0 0 0 0 -5 5 0 0. 9.
 15 1 1 2 0 0 2.76611 -2.13692 -3.10233 5 1.7768 0. -1
 -15 1 1 2 0 0 -2.76611 2.13692 3.10233 5 1.7768 0. 1
</event>
<event>
 4 80 1 -1 -1 -1
 11 -1 0 0 0 0 0 0 4.71101 4.71101 0 0. 9.
 -11 -1 0 0 0 0 0 0 -4.8942 4.8942 0 0. 9.
 15 1 1 2 0 0 -2.2276 3.07201 -2.43711 4.84734 1.7768 0. -1
 -15 1 1 2 0 0 2.2276 -3.07201 2.25392 4.75787 1.7768 0. 1
</event>
<event>
 4 80 1 -1 -1 -1
 11 -1 0 0 0 0 0 0 5 5 0 0. 9.
 -11 -1 0 0 0 0 0 0 -4.98947 4.98947 0 0. 9.
 15 1 1 2 0 0 -2.69809 -3.43361 -1.64406 4.993 1.7768 0. -1
 -15 1 1 2 0 0 2.69809 3.43361 1.65459 4.99647 1.7768 0. 1
</event>
<event>
 4 80 1 -1 -1 -1
 11 -1 0 0 0 0 0 0 5 5 0 0. 9.
 -11 -1 0 0 0 0 0 0 -5 5 0 0. 9.
 15 1 1 2 0 0 4.38393 -0.865428 -1.36911 5 1.7768 0. -1
 -15 1 1 2 0 0 -4.38393 0.865428 1.36911 5 1.7768 0. 1
</event>
<event>
 4 80 1 -1 -1 -1
 11 -1 0 0 0 0 0 0 5 5 0 0. 9.
 -11 -1 0 0 0 0 0 0 -5 5 0 0. 9.
 15 1 1 2 0 0 0.541872 -4.50795 -1.10769 5 1.7768 0. -1
 -15 1 1 2 0 0 -0.541872 4.50795 1.10769 5 1.7768 0. 1
</event>
<event>
 4 80 1 -1 -1 -1
 11 -1 0 0 0 0 0 0 5 5 0 0. 9.
 -11 -1 0 0 0 0 0 0 -5 5 0 0. 9.
 15 1 1 2 0 0 2.13611 1.22965 3.9708 5 1.7768 0. -1
 -15 1 1 2 0 0 -2.13611 -1.22965 -3.9708 5 1.7768 0. 1
</event>
<event>
 4 80 1 -1 -1 -1
 11 -1 0 0 0 0 0 0 5 5 0 0. 9.
 -11 -1 0 0 0 0 0 0 -5 5 0 0. 9.
 15 1 1 2 0 0 -1.74129 0.297203 -4.32687 5 1.7768 0. -1
 -15 1 1 2 0 0 1.74129 -0.297203 4.32687 5 1.7768 0. 1
</event>
<event>
 4 80 1 -1 -1 -1
 11 -1 0 0 0 0 0 0 5 5 0 0. 9.
 -11 -1 0 0 0 0 0 0 -5 5 0 0. 9.
 15 1 1 2 0 0 -0.805422 2.55208 3.83151 5 1.7768 0. -1
 -15 1 1 2 0 0 0.805422 -2.55208 -3.83151 5 1.7768 0. 1
</event>
<event>
 4 80 1 -1 -1 -1
 11 -1 0 0 0 0 0 0 4.46093 4.46093 0 0. 9.
 -11 -1 0 0 0 0 0 0 -5 5 0 0. 9.
 15 1 1 2 0 0 -0.610227 3.46737 2.33313 4.58217 1.7768 0. 1
 -15 1 1 2 0 0 0.610227 -3.46737 -2.87221 4.87876 1.7768 0. -1
</event>
<event>
 4 80 1 -1 -1 -1
 11 -1 0 0 0 0 0 0 4.9998 4.9998 0 0. 9.
 -11 -1 0 0 0 0 0 0 -4.09418 4.09418 0 0. 9.
 15 1 1 2 0 0 -2.72058 1.05091 -2.52957 4.24999 1.7768 0. 1
 -15 1 1 2 0 0 2.72058 -1.05091 3.43519 4.84399 1.7768 0. -1
</event>
<event>
 4 80 1 -1 -1 -1
 11 -1 0 0 0 0 0 0 4.97115 4.97115 0 0. 9.
 -11 -1 0 0 0 0 0 0 -5 5 0 0. 9.
 15 1 1 2 0 0 -2.49439 1.41196 -3.68628 4.9962 1.7768 0. 1
 -15 1 1 2 0 0 2.49439 -1.41196 3.65743 4.97495 1.7768 0. -1
</event>
<event>
 4 80 1 -1 -1 -1
 11 -1 0 0 0 0 0 0 4.99998 4.99998 0 0. 9.
 -11 -1 0 0 0 0 0 0 -4.98852 4.98852 0 0. 9.
 15 1 1 2 0 0 2.80675 -3.69769 -0.477982 4.99369 1.7768 0. 1
 -15 1 1 2 0 0 -2.80675 3.69769 0.48944 4.9948 1.7768 0. -1
</event>
<event>
 4 80 1 -1 -1 -1
 11 -1 0 0 0 0 0 0 5 5 0 0. 9.
 -11 -1 0 0 0 0 0 0 -2.88685 2.88685 0 0. 9.
 15 1 1 2 0 0 -3.26575 0.775952 1.15681 3.97028 1.7768 0. 1
 -15 1 1 2 0 0 3.26575 -0.775952 0.956341 3.91657 1.7768 0. -1
</event>
<event>
 4 80 1 -1 -1 -1
 11 -1 0 0 0 0 0 0 4.99936 4.99936 0 0. 9.
 -11 -1 0 0 0 0 0 0 -4.19274 4.19274 0 0. 9.
 15 1 1 2 0 0 -3.15168 -1.65173 2.67969 4.7958 1.7768 0. -1
 -15 1 1 2 0 0 3.15168 1.65173 -1.87307 4.39629 1.7768 0. 1
</event>
<event>
 4 80 1 -1 -1 -1
 11 -1 0 0 0 0 0 0 1.15977 1.15977 0 0. 9.
 -11 -1 0 0 0 0 0 0 -4.16295 4.16295 0 0. 9.
 15 1 1 2 0 0 -0.52935 -1.11019 -1.02076 2.39006 1.7768 0. -1
 -15 1 1 2 0 0 0.52935 1.11019 -1.98243 2.93266 1.7768 0. 1
</event>
<event>
 4 80 1 -1 -1 -1
 11 -1 0 0 0 0 0 0 5 5 0 0. 9.
 -11 -1 0 0 0 0 0 0 -4.99801 4.99801 0 0. 9.
 15 1 1 2 0 0 -0.99202 -3.39909 -3.04768 4.9984 1.7768 0. 1
 -15 1 1 2 0 0 0.99202 3.39909 3.04967 4.99961 1.7768 0. -1
</event>
<event>
 4 80 1 -1 -1 -1
 11 -1 0 0 0 0 0 0 5 5 0 0. 9.
 -11 -1 0 0 0 0 0 0 -4.99489 4.99489 0 0. 9.
 15 1 1 2 0 0 0.507543 -4.26026 -1.84388 4.9965 1.7768 0. 1
 -15 1 1 2 0 0 -0.507543 4.26026 1.84899 4.99839 1.7768 0. -1
</event>
<event>
 4 80 1 -1 -1 -1
 11 -1 0 0 0 0 0 0 4.99809 4.99809 0 0. 9.
 -11 -1 0 0 0 0 0 0 -1.67659 1.67659 0 0. 9.
 15 1 1 2 0 0 0.755532 0.986215 3.87193 4.43768 1.7768 0. -1
 -15 1 1 2 0 0 -0.755532 -0.986215 -0.550423 2.23699 1.7768 0. 1
</event>
<event>
 4 80 1 -1 -1 -1
 11 -1 0 0 0 0 0 0 4.99998 4.99998 0 0. 9.
 -11 -1 0 0 0 0 0 0 -4.99998 4.99998 0 0. 9.
 15 1 1 2 0 0 -1.35808 4.39513 0.824958 4.99998 1.7768 0. 1
 -15 1 1 2 0 0 1.35808 -4.39513 -0.824958 4.99998 1.7768 0. -1
</event>
<event>
 4 80 1 -1 -1 -1
 11 -1 0 0 0 0 0 0 5 5 0 0. 9.
 -11 -1 0 0 0 0 0 0 -5 5 0 0. 9.
 15 1 1 2 0 0 -1.33326 -3.89612 -2.21019 5 1.7768 0. 1
 -15 1 1 2 0 0 1.33326 3.89612 2.21019 5 1.7768 0. -1
</event>
<event>
 4 80 1 -1 -1 -1
 11 -1 0 0 0 0 0 0 4.99981 4.99981 0 0. 9.
 -11 -1 0 0 0 0 0 0 -4.99689 4.99689 0 0. 9.
 15 1 1 2 0 0 1.20975 -3.21754 -3.16235 4.99742 1.7768 0. 1
 -15 1 1 2 0 0 -1.20975 3.21754 3.16528 4.99927 1.7768 0. -1
</event>
<event>
 4 80 1 -1 -1 -1
 11 -1 0 0 0 0 0 0 4.96742 4.96742 0 0. 9.
 -11 -1 0 0 0 0 0 0 -5 5 0 0. 9.
 15 1 1 2 0 0 2.99481 0.902388 -3.46539 4.99498 1.7768 0. -1
 -15 1 1 2 0 0 -2.99481 -0.902388 3.43281 4.97244 1.7768 0. 1
</event>
<event>
 4 80 1 -1 -1 -1
 11 -1 0 0 0 0 0 0 5 5 0 0. 9.
 -11 -1 0 0 0 0 0 0 -3.55341 3.55341 0 0. 9.
 15 1 1 2 0 0 -2.33229 0.277375 -2.33621 3.75927 1.7768 0. -1
 -15 1 1 2 0 0 2.33229 -0.277375 3.78279 4.79414 1.7768 0. 1
</event>
<event>
 4 80 1 -1 -1 -1
 11 -1 0 0 0 0 0 0 5 5 0 0. 9.
 -11 -1 0 0 0 0 0 0 -5 5 0 0. 9.
 15 1 1 2 0 0 1.92908 3.29325 -2.69729 5 1.7768 0. -1
 -15 1 1 2 0 0 -1.92908 -3.29325 2.69729 5 1.7768 0. 1
</event>
<event>
 4 80 1 -1 -1 -1
 11 -1 0 0 0 0 0 0 5 5 0 0. 9.
 -11 -1 0 0 0 0 0 0 -5 5 0 0. 9.
 15 1 1 2 0 0 2.439 -3.61058 1.69034 5 1.7768 0. 1
 -15 1 1 2 0 0 -2.439 3.61058 -1.69034 5 1.7768 0. -1
</event>
<event>
 4 80 1 -1 -1 -1
 11 -1 0 0 0 0 0 0 5 5 0 0. 9.
 -11 -1 0 0 0 0 0 0 -4.99938 4.99938 0 0. 9.
 15 1 1 2 0 0 1.39024 -4.29971 -1.19088 4.99961 1.7768 0. 1
 -15 1 1 2 0 0 -1.39024 4.29971 1.1915 4.99976 1.7768 0. -1
</event>
<event>
 4 80 1 -1 -1 -1
 11 -1 0 0 0 0 0 0 5 5 0 0. 9.
 -11 -1 0 0 0 0 0 0 -5 5 0 0. 9.
 15 1 1 2 0 0 -1.13037 2.6319 3.69291 5 1.7768 0. 1
 -15 1 1 2 0 0 1.13037 -2.6319 -3.69291 5 1.7768 0. -1
</event>
<event>
 4 80 1 -1 -1 -1
 11 -1 0 0 0 0 0 0 4.85138 4.85138 0 0. 9.
 -11 -1 0 0 0 0 0 0 -5 5 0 0. 9.
 15 1 1 2 0 0 0.329445 2.64816 3.66481 4.86928 1.7768 0. -1
 -15 1 1 2 0 0 -0.329445 -2.64816 -3.81343 4.9821 1.7768 0. 1
</event>
<event>
 4 80 1 -1 -1 -1
 11 -1 0 0 0 0 0 0 4.99605 4.99605 0 0. 9.
 -11 -1 0 0 0 0 0 0 -5 5 0 0. 9.
 15 1 1 2 0 0 -3.50271 0.0883719 -3.09159 4.99925 1.7768 0. 1
 -15 1 1 2 0 0 3.50271 -0.0883719 3.08763 4.9968 1.7768 0. -1
</event>
<event>
 4 80 1 -1 -1 -1
 11 -1 0 0 0 0 0 0 5 5 0 0. 9.
 -11 -1 0 0 0 0 0 0 -5 5 0 0. 9.
 15 1 1 2 0 0 -2.73954 -3.77758 0.259015 5 1.7768 0. -1
 -15 1 1 2 0 0 2.73954 3.77758 -0.259015 5 1.7768 0. 1
</event>
<event>
 4 80 1 -1 -1 -1
 11 -1 0 0 0 0 0 0 5 5 0 0. 9.
 -11 -1 0 0 0 0 0 0 -5 5 0 0. 9.
 15 1 1 2 0 0 -3.6467 2.11452 2.01808 5 1.7768 0. 1
 -15 1 1 2 0 0 3.6467 -2.11452 -2.01808 5 1.7768 0. -1
</event>
<event>
 4 80 1 -1 -1 -1
 11 -1 0 0 0 0 0 0 5 5 0 0. 9.
 -11 -1 0 0 0 0 0 0 -4.99995 4.99995 0 0. 9.
 15 1 1 2 0 0 -2.88724 -2.88453 -2.2771 4.99996 1.7768 0. 1
 -15 1 1 2 0 0 2.88724 2.88453 2.27716 4.99999 1.7768 0. -1
</event>
<event>
 4 80 1 -1 -1 -1
 11 -1 0 0 0 0 0 0 5 5 0 0. 9.
 -11 -1 0 0 0 0 0 0 -5 5 0 0. 9.
 15 1 1 2 0 0 -4.33435 -0.440337 -1.69167 5 1.7768 0. -1
 -15 1 1 2 0 0 4.33435 0.440337 1.69167 5 1.7768 0. 1
</event>
<event>
 4 80 1 -1 -1 -1
 11 -1 0 0 0 0 0 0 5 5 0 0. 9.
 -11 -1 0 0 0 0 0 0 -4.99695 4.99695 0 0. 9.
 15 1 1 2 0 0 -1.25473 0.960359 -4.3951 4.99713 1.7768 0. 1
 -15 1 1 2 0 0 1.25473 -0.960359 4.39816 4.99982 1.7768 0. -1
</event>
<event>
 4 80 1 -1 -1 -1
 11 -1 0 0 0 0 0 0 5 5 0 0. 9.
 -11 -1 0 0 0 0 0 0 -4.15943 4.15943 0 0. 9.
 15 1 1 2 0 0 -2.80079 -1.81923 2.97772 4.81441 1.7768 0. 1
 -15 1 1 2 0 0 2.80079 1.81923 -2.13715 4.34502 1.7768 0. -1
</event>
<event>
 4 80 1 -1 -1 -1
 11 -1 0 0 0 0 0 0 5 5 0 0. 9.
 -11 -1 0 0 0 0 0 0 -4.4118 4.4118 0 0. 9.
 15 1 1 2 0 0 -1.16095 1.27716 4.2922 4.95576 1.7768 0. 1
 -15 1 1 2 0 0 1.16095 -1.27716 -3.70399 4.45603 1.7768 0. -1
</event>
<event>
 4 80 1 -1 -1 -1
 11 -1 0 0 0 0 0 0 5 5 0 0. 9.
 -11 -1 0 0 0 0 0 0 -5 5 0 0. 9.
 15 1 1 2 0 0 2.33965 -2.55436 3.13744 5 1.7768 0. -1
 -15 1 1 2 0 0 -2.33965 2.55436 -3.13744 5 1.7768 0. 1
</event>
<event>
 4 80 1 -1 -1 -1
 11 -1 0 0 0 0 0 0 5 5 0 0. 9.
 -11 -1 0 0 0 0 0 0 -5 5 0 0. 9.
 15 1 1 2 0 0 3.79548 -2.70302 0.360907 5 1.7768 0. -1
 -15 1 1 2 0 0 -3.79548 2.70302 -0.360908 5 1.7768 0. 1
</event>
<event>
 4 80 1 -1 -1 -1
 11 -1 0 0 0 0 0 0 5 5 0 0. 9.
 -11 -1 0 0 0 0 0 0 -4.99999 4.99999 0 0. 9.
 15 1 1 2 0 0 2.27683 2.70774 3.05392 5 1.7768 0. 1
 -15 1 1 2 0 0 -2.27683 -2.70774 -3.05392 5 1.7768 0. -1
</event>
<event>
 4 80 1 -1 -1 -1
 11 -1 0 0 0 0 0 0 4.87899 4.87899 0 0. 9.
 -11 -1 0 0 0 0 0 0 -1.29657 1.29657 0 0. 9.
 15 1 1 2 0 0 0.99803 0.960233 3.16385 3.88405 1.7768 0. 1
 -15 1 1 2 0 0 -0.99803 -0.960233 0.418571 2.29152 1.7768 0. -1
</event>
<event>
 4 80 1 -1 -1 -1
 11 -1 0 0 0 0 0 0 4.96274 4.96274 0 0. 9.
 -11 -1 0 0 0 0 0 0 -5 5 0 0. 9.
 15 1 1 2 0 0 -4.28441 -1.04637 1.46626 4.97581 1.7768 0. 1
 -15 1 1 2 0 0 4.28441 1.04637 -1.50353 4.98692 1.7768 0. -1
</event>
<event>
 4 80 1 -1 -1 -1
 11 -1 0 0 0 0 0 0 4.612 4.612 0 0. 9.
 -11 -1 0 0 0 0 0 0 -5 5 0 0. 9.
 15 1 1 2 0 0 1.14322 0.160507 4.11876 4.63191 1.7768 0. 1
 -15 1 1 2 0 0 -1.14322 -0.160507 -4.50676 4.98009 1.7768 0. -1
</event>
<event>
 4 80 1 -1 -1 -1
 11 -1 0 0 0 0 0 0 4.99709 4.99709 0 0. 9.
 -11 -1 0 0 0 0 0 0 -4.9808 4.9808 0 0. 9.
 15 1 1 2 0 0 2.44339 -3.78473 1.20708 4.9909 1.7768 0. -1
 -15 1 1 2 0 0 -2.44339 3.78473 -1.19078 4.98699 1.7768 0. 1
</event>
<event>
 4 80 1 -1 -1 -1
 11 -1 0 0 0 0 0 0 5 5 0 0. 9.
 -11 -1 0 0 0 0 0 0 -4.99999 4.99999 0 0. 9.
 15 1 1 2 0 0 -1.67083 4.16566 -1.30299 4.99999 1.7768 0. 1
 -15 1 1 2 0 0 1.67083 -4.16566 1.303 5 1.7768 0. -1
</event>
<event>
 4 80 1 -1 -1 -1
 11 -1 0 0 0 0 0 0 4.99851 4.99851 0 0. 9.
 -11 -1 0 0 0 0 0 0 -5 5 0 0. 9.
 15 1 1 2 0 0 2.62679 -0.170467 3.86005 4.99868 1.7768 0. -1
 -15 1 1 2 0 0 -2.62679 0.170467 -3.86154 4.99983 1.7768 0. 1
</event>
<event>
 4 80 1 -1 -1 -1
 11 -1 0 0 0 0 0 0 4.85479 4.85479 0 0. 9.
 -11 -1 0 0 0 0 0 0 -5 5 0 0. 9.
 15 1 1 2 0 0 0.831936 3.97672 2.07467 4.89575 1.7768 0. 1
 -15 1 1 2 0 0 -0.831936 -3.97672 -2.21988 4.95903 1.7768 0. -1
</event>
<event>
 4 80 1 -1 -1 -1
 11 -1 0 0 0 0 0 0 4.92738 4.92738 0 0. 9.
 -11 -1 0 0 0 0 0 0 -5 5 0 0. 9.
 15 1 1 2 0 0 -1.37326 -1.00826 -4.3465 4.99522 1.7768 0. 1
 -15 1 1 2 0 0 1.37326 1.00826 4.27388 4.93216 1.7768 0. -1
</event>
<event>
 4 80 1 -1 -1 -1
 11 -1 0 0 0 0 0 0 5 5 0 0. 9.
 -11 -1 0 0 0 0 0 0 -5 5 0 0. 9.
 15 1 1 2 0 0 -0.156633 -0.823975 4.5977 5 1.7768 0. 1
 -15 1 1 2 0 0 0.156633 0.823975 -4.5977 5 1.7768 0. -1
</event>
<event>
 4 80 1 -1 -1 -1
 11 -1 0 0 0 0 0 0 5 5 0 0. 9.
 -11 -1 0 0 0 0 0 0 -5 5 0 0. 9.
 15 1 1 2 0 0 1.30061 3.23445 3.11271 5 1.7768 0. 1
 -15 1 1 2 0 0 -1.30061 -3.23445 -3.11271 5 1.7768 0. -1
</event>
<event>
 4 80 1 -1 -1 -1
 11 -1 0 0 0 0 0 0 0.957672 0.957672 0 0. 9.
 -11 -1 0 0 0 0 0 0 -4.96474 4.96474 0 0. 9.
 15 1 1 2 0 0 -1.13841 0.209759 -1.31523 2.4955 1.7768 0. -1
 -15 1 1 2 0 0 1.13841 -0.209759 -2.69184 3.42691 1.7768 0. 1
</event>
<event>
 4 80 1 -1 -1 -1
 11 -1 0 0 0 0 0 0 5 5 0 0. 9.
 -11 -1 0 0 0 0 0 0 -4.95031 4.95031 0 0. 9.
 15 1 1 2 0 0 0.196546 -1.05798 4.54551 4.99773 1.7768 0. 1
 -15 1 1 2 0 0 -0.196546 1.05798 -4.49582 4.95258 1.7768 0. -1
</event>
<event>
 4 80 1 -1 -1 -1
 11 -1 0 0 0 0 0 0 4.1324 4.1324 0 0. 9.
 -11 -1 0 0 0 0 0 0 -5 5 0 0. 9.
 15 1 1 2 0 0 1.98412 -2.90721 1.83825 4.35035 1.7768 0. 1
 -15 1 1 2 0 0 -1.98412 2.90721 -2.70585 4.78205 1.7768 0. -1
</event>
<event>
 4 80 1 -1 -1 -1
 11 -1 0 0 0 0 0 0 5 5 0 0. 9.
 -11 -1 0 0 0 0 0 0 -4.16752 4.16752 0 0. 9.
 15 1 1 2 0 0 -3.60774 -0.28908 -1.73285 4.38861 1.7768 0. -1
 -15 1 1 2 0 0 3.60774 0.28908 2.56533 4.77891 1.7768 0. 1
</event>
<event>
 4 80 1 -1 -1 -1
 11 -1 0 0 0 0 0 0 5 5 0 0. 9.
 -11 -1 0 0 0 0 0 0 -5 5 0 0. 9.
 15 1 1 2 0 0 -0.214199 4.54016 -1.08782 5 1.7768 0. -1
 -15 1 1 2 0 0 0.214199 -4.54016 1.08782 5 1.7768 0. 1
</event>
<event>
 4 80 1 -1 -1 -1
 11 -1 0 0 0 0 0 0 5 5 0 0. 9.
 -11 -1 0 0 0 0 0 0 -5 5 0 0. 9.
 15 1 1 2 0 0 1.12509 -3.36356 3.0435 5 1.7768 0. 1
 -15 1 1 2 0 0 -1.12509 3.36356 -3.0435 5 1.7768 0. -1
</event>
<event>
 4 80 1 -1 -1 -1
 11 -1 0 0 0 0 0 0 4.98214 4.98214 0 0. 9.
 -11 -1 0 0 0 0 0 0 -5 5 0 0. 9.
 15 1 1 2 0 0 1.31376 1.73438 4.11648 4.98369 1.7768 0. 1
 -15 1 1 2 0 0 -1.31376 -1.73438 -4.13434 4.99845 1.7768 0. -1
</event>
<event>
 4 80 1 -1 -1 -1
 11 -1 0 0 0 0 0 0 4.99432 4.99432 0 0. 9.
 -11 -1 0 0 0 0 0 0 -0.66832 0.66832 0 0. 9.
 15 1 1 2 0 0 0.00531084 0.327663 1.7452 2.51214 1.7768 0. 1
 -15 1 1 2 0 0 -0.00531084 -0.327663 2.58079 3.1505 1.7768 0. -1
</event>
<event>
 4 80 1 -1 -1 -1
 11 -1 0 0 0 0 0 0 5 5 0 0. 9.
 -11 -1 0 0 0 0 0 0 -5 5 0 0. 9.
 15 1 1 2 0 0 -3.65709 2.44251 -1.58181 5 1.7768 0. 1
 -15 1 1 2 0 0 3.65709 -2.44251 1.58181 5 1.7768 0. -1
</event>
<event>
 4 80 1 -1 -1 -1
 11 -1 0 0 0 0 0 0 4.99975 4.99975 0 0. 9.
 -11 -1 0 0 0 0 0 0 -4.99935 4.99935 0 0. 9.
 15 1 1 2 0 0 -0.813918 -4.51799 0.873747 4.99959 1.7768 0. 1
 -15 1 1 2 0 0 0.813918 4.51799 -0.873346 4.99952 1.7768 0. -1
</event>
<event>
 4 80 1 -1 -1 -1
 11 -1 0 0 0 0 0 0 5 5 0 0. 9.
 -11 -1 0 0 0 0 0 0 -4.99978 4.99978 0 0. 9.
 15 1 1 2 0 0 -0.644961 -2.51527 -3.88559 4.99981 1.7768 0. 1
 -15 1 1 2 0 0 0.644961 2.51527 3.8858 4.99998 1.7768 0. -1
</event>
<event>
 4 80 1 -1 -1 -1
 11 -1 0 0 0 0 0 0 4.9911 4.9911 0 0. 9.
 -11 -1 0 0 0 0 0 0 -5 5 0 0. 9.
 15 1 1 2 0 0 -0.552173 -1.59124 4.34995 4.99167 1.7768 0. -1
 -15 1 1 2 0 0 0.552173 1.59124 -4.35885 4.99943 1.7768 0. 1
</event>
<event>
 4 80 1 -1 -1 -1
 11 -1 0 0 0 0 0 0 5 5 0 0. 9.
 -11 -1 0 0 0 0 0 0 -4.99999 4.99999 0 0. 9.
 15 1 1 2 0 0 -1.97264 -3.67611 -2.10644 4.99999 1.7768 0. 1
 -15 1 1 2 0 0 1.97264 3.67611 2.10645 5 1.7768 0. -1
</event>
<event>
 4 80 1 -1 -1 -1
 11 -1 0 0 0 0 0 0 5 5 0 0. 9.
 -11 -1 0 0 0 0 0 0 -4.99982 4.99982 0 0. 9.
 15 1 1 2 0 0 -1.93203 -0.232501 -4.24898 4.99983 1.7768 0. 1
 -15 1 1 2 0 0 1.93203 0.232501 4.24915 4.99998 1.7768 0. -1
</event>
<event>
 4 80 1 -1 -1 -1
 11 -1 0 0 0 0 0 0 5 5 0 0. 9.
 -11 -1 0 0 0 0 0 0 -4.99764 4.99764 0 0. 9.
 15 1 1 2 0 0 -0.683297 4.60715 0.372331 4.99891 1.7768 0. 1
 -15 1 1 2 0 0 0.683297 -4.60715 -0.369971 4.99873 1.7768 0. -1
</event>
<event>
 4 80 1 -1 -1 -1
 11 -1 0 0 0 0 0 0 5 5 0 0. 9.
 -11 -1 0 0 0 0 0 0 -5 5 0 0. 9.
 15 1 1 2 0 0 -1.47169 -3.28575 -2.97997 5 1.7768 0. 1
 -15 1 1 2 0 0 1.47169 3.28575 2.97997 5 1.7768 0. -1
</event>
<event>
 4 80 1 -1 -1 -1
 11 -1 0 0 0 0 0 0 5 5 0 0. 9.
 -11 -1 0 0 0 0 0 0 -4.96334 4.96334 0 0. 9.
 15 1 1 2 0 0 0.167446 -0.248175 -4.62598 4.96458 1.7768 0. -1
 -15 1 1 2 0 0 -0.167446 0.248175 4.66264 4.99876 1.7768 0. 1
</event>
<event>
 4 80 1 -1 -1 -1
 11 -1 0 0 0 0 0 0 4.99843 4.99843 0 0. 9.
 -11 -1 0 0 0 0 0 0 -5 5 0 0. 9.
 15 1 1 2 0 0 -2.535 3.38034 1.99458 4.9989 1.7768 0. 1
 -15 1 1 2 0 0 2.535 -3.38034 -1.99615 4.99953 1.7768 0. -1
</event>
<event>
 4 80 1 -1 -1 -1
 11 -1 0 0 0 0 0 0 4.99996 4.99996 0 0. 9.
 -11 -1 0 0 0 0 0 0 -5 5 0 0. 9.
 15 1 1 2 0 0 1.84879 -1.84082 3.87753 4.99996 1.7768 0. 1
 -15 1 1 2 0 0 -1.84879 1.84082 -3.87757 5 1.7768 0. -1
</event>
<event>
 4 80 1 -1 -1 -1
 11 -1 0 0 0 0 0 0 5 5 0 0. 9.
 -11 -1 0 0 0 0 0 0 -5 5 0 0. 9.
 15 1 1 2 0 0 -0.0518246 4.5295 -1.1503 5 1.7768 0. -1
 -15 1 1 2 0 0 0.0518246 -4.5295 1.1503 5 1.7768 0. 1
</event>
<event>
 4 80 1 -1 -1 -1
 11 -1 0 0 0 0 0 0 4.98082 4.98082 0 0. 9.
 -11 -1 0 0 0 0 0 0 -5 5 0 0. 9.
 15 1 1 2 0 0 -4.28013 -1.0743 -1.51714 4.99331 1.7768 0. -1
 -15 1 1 2 0 0 4.28013 1.0743 1.49796 4.98751 1.7768 0. 1
</event>
<event>
 4 80 1 -1 -1 -1
 11 -1 0 0 0 0 0 0 5 5 0 0. 9.
 -11 -1 0 0 0 0 0 0 -2.009 2.009 0 0. 9.
 15 1 1 2 0 0 -0.84726 1.31201 3.82754 4.49967 1.7768 0. 1
 -15 1 1 2 0 0 0.84726 -1.31201 -0.836546 2.50933 1.7768 0. -1
</event>
<event>
 4 80 1 -1 -1 -1
 11 -1 0 0 0 0 0 0 5 5 0 0. 9.
 -11 -1 0 0 0 0 0 0 -4.97556 4.97556 0 0. 9.
 15 1 1 2 0 0 -1.4664 -0.58609 4.39701 4.99852 1.7768 0. 1
 -15 1 1 2 0 0 1.4664 0.58609 -4.37257 4.97704 1.7768 0. -1
</event>
<event>
 4 80 1 -1 -1 -1
 11 -1 0 0 0 0 0 0 4.99362 4.99362 0 0. 9.
 -11 -1 0 0 0 0 0 0 -4.02776 4.02776 0 0. 9.
 15 1 1 2 0 0 -4.08288 -0.0223435 1.01985 4.56817 1.7768 0. 1
 -15 1 1 2 0 0 4.08288 0.0223435 -0.0539925 4.4532 1.7768 0. -1
</event>
<event>
 4 80 1 -1 -1 -1
 11 -1 0 0 0 0 0 0 5 5 0 0. 9.
 -11 -1 0 0 0 0 0 0 -4.93177 4.93177 0 0. 9.
 15 1 1 2 0 0 -1.09261 2.85747 -3.45053 4.94195 1.7768 0. 1
 -15 1 1 2 0 0 1.09261 -2.85747 3.51876 4.98982 1.7768 0. -1
</event>
<event>
 4 80 1 -1 -1 -1
 11 -1 0 0 0 0 0 0 5 5 0 0. 9.
 -11 -1 0 0 0 0 0 0 -5 5 0 0. 9.
 15 1 1 2 0 0 4.44258 0.392059 -1.39715 5 1.7768 0. -1
 -15 1 1 2 0 0 -4.44258 -0.392059 1.39715 5 1.7768 0. 1
</event>
<event>
 4 80 1 -1 -1 -1
 11 -1 0 0 0 0 0 0 4.99797 4.99797 0 0. 9.
 -11 -1 0 0 0 0 0 0 -5 5 0 0. 9.
 15 1 1 2 0 0 -0.00892502 -4.65547 -0.399276 4.99907 1.7768 0. -1
 -15 1 1 2 0 0 0.00892502 4.65547 0.397248 4.99891 1.7768 0. 1
</event>
<event>
 4 80 1 -1 -1 -1
 11 -1 0 0 0 0 0 0 4.99903 4.99903 0 0. 9.
 -11 -1 0 0 0 0 0 0 -4.99641 4.99641 0 0. 9.
 15 1 1 2 0 0 -1.18947 -4.05255 -1.99407 4.9972 1.7768 0. -1
 -15 1 1 2 0 0 1.18947 4.05255 1.99668 4.99824 1.7768 0. 1
</event>
<event>
 4 80 1 -1 -1 -1
 11 -1 0 0 0 0 0 0 4.99998 4.99998 0 0. 9.
 -11 -1 0 0 0 0 0 0 -5 5 0 0. 9.
 15 1 1 2 0 0 -0.524993 3.82676 2.63105 4.99999 1.7768 0. -1
 -15 1 1 2 0 0 0.524993 -3.82676 -2.63107 5 1.7768 0. 1
</event>
<event>
 4 80 1 -1 -1 -1
 11 -1 0 0 0 0 0 0 5 5 0 0. 9.
 -11 -1 0 0 0 0 0 0 -5 5 0 0. 9.
 15 1 1 2 0 0 -2.04623 1.68226 3.85035 5 1.7768 0. -1
 -15 1 1 2 0 0 2.04623 -1.68226 -3.85035 5 1.7768 0. 1
</event>
<event>
 4 80 1 -1 -1 -1
 11 -1 0 0 0 0 0 0 5 5 0 0. 9.
 -11 -1 0 0 0 0 0 0 -4.99965 4.99965 0 0. 9.
 15 1 1 2 0 0 2.05464 3.22351 -2.68831 4.99973 1.7768 0. -1
 -15 1 1 2 0 0 -2.05464 -3.22351 2.68866 4.99992 1.7768 0. 1
</event>
<event>
 4 80 1 -1 -1 -1
 11 -1 0 0 0 0 0 0 5 5 0 0. 9.
 -11 -1 0 0 0 0 0 0 -4.80247 4.80247 0 0. 9.
 15 1 1 2 0 0 -1.27614 -1.76316 4.11422 4.98215 1.7768 0. -1
 -15 1 1 2 0 0 1.27614 1.76316 -3.91669 4.82032 1.7768 0. 1
</event>
<event>
 4 80 1 -1 -1 -1
 11 -1 0 0 0 0 0 0 4.99687 4.99687 0 0. 9.
 -11 -1 0 0 0 0 0 0 -4.88412 4.88412 0 0. 9.
 15 1 1 2 0 0 1.69559 1.59056 -3.92417 4.89507 1.7768 0. 1
 -15 1 1 2 0 0 -1.69559 -1.59056 4.03693 4.98592 1.7768 0. -1
</event>
<event>
 4 80 1 -1 -1 -1
 11 -1 0 0 0 0 0 0 0.714216 0.714216 0 0. 9.
 -11 -1 0 0 0 0 0 0 -4.9991 4.9991 0 0. 9.
 15 1 1 2 0 0 0.0337952 0.245879 -1.24662 2.18481 1.7768 0. 1
 -15 1 1 2 0 0 -0.0337952 -0.245879 -3.03826 3.52851 1.7768 0. -1
</event>
<event>
 4 80 1 -1 -1 -1
 11 -1 0 0 0 0 0 0 5 5 0 0. 9.
 -11 -1 0 0 0 0 0 0 -4.99998 4.99998 0 0. 9.
 15 1 1 2 0 0 -2.87014 -0.806897 -3.59907 4.99998 1.7768 0. -1
 -15 1 1 2 0 0 2.87014 0.806897 3.59909 5 1.7768 0. 1
</event>
<event>
 4 80 1 -1 -1 -1
 11 -1 0 0 0 0 0 0 5 5 0 0. 9.
 -11 -1 0 0 0 0 0 0 -5 5 0 0. 9.
 15 1 1 2 0 0 -0.413497 3.37355 -3.20788 5 1.7768 0. 1
 -15 1 1 2 0 0 0.413497 -3.37355 3.20788 5 1.7768 0. -1
</event>
<event>
 4 80 1 -1 -1 -1
 11 -1 0 0 0 0 0 0 5 5 0 0. 9.
 -11 -1 0 0 0 0 0 0 -5 5 0 0. 9.
 15 1 1 2 0 0 0.455033 4.62476 -0.49682 5 1.7768 0. 1
 -15 1 1 2 0 0 -0.455033 -4.62476 0.49682 5 1.7768 0. -1
</event>
<event>
 4 80 1 -1 -1 -1
 11 -1 0 0 0 0 0 0 4.90114 4.90114 0 0. 9.
 -11 -1 0 0 0 0 0 0 -4.99998 4.99998 0 0. 9.
 15 1 1 2 0 0 2.78636 -2.69337 -2.56547 4.97568 1.7768 0. -1
 -15 1 1 2 0 0 -2.78636 2.69337 2.46662 4.92544 1.7768 0. 1
</event>
<event>
 4 80 1 -1 -1 -1
 11 -1 0 0 0 0 0 0 5 5 0 0. 9.
 -11 -1 0 0 0 0 0 0 -4.89367 4.89367 0 0. 9.
 15 1 1 2 0 0 0.353432 3.28545 -3.17061 4.91219 1.7768 0. -1
 -15 1 1 2 0 0 -0.353432 -3.28545 3.27694 4.98148 1.7768 0. 1
</event>
<event>
 4 80 1 -1 -1 -1
 11 -1 0 0 0 0 0 0 5 5 0 0. 9.
 -11 -1 0 0 0 0 0 0 -5 5 0 0. 9.
 15 1 1 2 0 0 2.61264 1.81041 3.42619 5 1.7768 0. -1
 -15 1 1 2 0 0 -2.61264 -1.81041 -3.42619 5 1.7768 0. 1
</event>
<event>
 4 80 1 -1 -1 -1
 11 -1 0 0 0 0 0 0 4.09689 4.09689 0 0. 9.
 -11 -1 0 0 0 0 0 0 -5 5 0 0. 9.
 15 1 1 2 0 0 3.95142 -0.718028 0.648145 4.43927 1.7768 0. 1
 -15 1 1 2 0 0 -3.95142 0.718028 -1.55125 4.65762 1.7768 0. -1
</event>
<event>
 4 80 1 -1 -1 -1
 11 -1 0 0 0 0 0 0 4.9985 4.9985 0 0. 9.
 -11 -1 0 0 0 0 0 0 -3.3526 3.3526 0 0. 9.
 15 1 1 2 0 0 -0.442142 3.62749 1.32897 4.27528 1.7768 0. -1
 -15 1 1 2 0 0 0.442142 -3.62749 0.316932 4.07582 1.7768 0. 1
</event>
<event>
 4 80 1 -1 -1 -1
 11 -1 0 0 0 0 0 0 4.99916 4.99916 0 0. 9.
 -11 -1 0 0 0 0 0 0 -5 5 0 0. 9.
 15 1 1 2 0 0 -0.803344 -4.55916 0.637338 4.99953 1.7768 0. 1
 -15 1 1 2 0 0 0.803344 4.55916 -0.638177 4.99963 1.7768 0. -1
</event>
<event>
 4 80 1 -1 -1 -1
 11 -1 0 0 0 0 0 0 5 5 0 0. 9.
 -11 -1 0 0 0 0 0 0 -5 5 0 0. 9.
 15 1 1 2 0 0 2.65703 3.81541 0.474426 5 1.7768 0. -1
 -15 1 1 2 0 0 -2.65703 -3.81541 -0.474426 5 1.7768 0. 1
</event>
<event>
 4 80 1 -1 -1 -1
 11 -1 0 0 0 0 0 0 5 5 0 0. 9.
 -11 -1 0 0 0 0 0 0 -5 5 0 0. 9.
 15 1 1 2 0 0 -3.14584 0.311404 -3.44224 5 1.7768 0. -1
 -15 1 1 2 0 0 3.14584 -0.311404 3.44224 5 1.7768 0. 1
</event>
<event>
 4 80 1 -1 -1 -1
 11 -1 0 0 0 0 0 0 5 5 0 0. 9.
 -11 -1 0 0 0 0 0 0 -4.99998 4.99998 0 0. 9.
 15 1 1 2 0 0 0.588587 1.91809 -4.22097 4.99998 1.7768 0. -1
 -15 1 1 2 0 0 -0.588587 -1.91809 4.22099 5 1.7768 0. 1
</event>
<event>
 4 80 1 -1 -1 -1
 11 -1 0 0 0 0 0 0 5 5 0 0. 9.
 -11 -1 0 0 0 0 0 0 -5 5 0 0. 9.
 15 1 1 2 0 0 -0.0319455 2.12982 4.15994 5 1.7768 0. -1
 -15 1 1 2 0 0 0.0319455 -2.12982 -4.15994 5 1.7768 0. 1
</event>
<event>
 4 80 1 -1 -1 -1
 11 -1 0 0 0 0 0 0 5 5 0 0. 9.
 -11 -1 0 0 0 0 0 0 -2.72993 2.72993 0 0. 9.
 15 1 1 2 0 0 2.08225 -1.28738 -1.08384 3.21334 1.7768 0. 1
 -15 1 1 2 0 0 -2.08225 1.28738 3.35391 4.51659 1.7768 0. -1
</event>
<event>
 4 80 1 -1 -1 -1
 11 -1 0 0 0 0 0 0 5 5 0 0. 9.
 -11 -1 0 0 0 0 0 0 -4.24608 4.24608 0 0. 9.
 15 1 1 2 0 0 1.63389 0.937972 -3.44672 4.31126 1.7768 0. -1
 -15 1 1 2 0 0 -1.63389 -0.937972 4.20064 4.93482 1.7768 0. 1
</event>
<event>
 4 80 1 -1 -1 -1
 11 -1 0 0 0 0 0 0 5 5 0 0. 9.
 -11 -1 0 0 0 0 0 0 -5 5 0 0. 9.
 15 1 1 2 0 0 0.0301201 -1.76369 4.3279 5 1.7768 0. -1
 -15 1 1 2 0 0 -0.0301201 1.76369 -4.3279 5 1.7768 0. 1
</event>
<event>
 4 80 1 -1 -1 -1
 11 -1 0 0 0 0 0 0 4.99999 4.99999 0 0. 9.
 -11 -1 0 0 0 0 0 0 -4.66333 4.66333 0 0. 9.
 15 1 1 2 0 0 -3.56127 2.62541 0.932608 4.85829 1.7768 0. -1
 -15 1 1 2 0 0 3.56127 -2.62541 -0.595956 4.80503 1.7768 0. 1
</event>
<event>
 4 80 1 -1 -1 -1
 11 -1 0 0 0 0 0 0 1.11821 1.11821 0 0. 9.
 -11 -1 0 0 0 0 0 0 -4.26156 4.26156 0 0. 9.
 15 1 1 2 0 0 0.0120791 1.12002 -2.30381 3.11767 1.7768 0. 1
 -15 1 1 2 0 0 -0.0120791 -1.12002 -0.839538 2.26211 1.7768 0. -1
</event>
<event>
 4 80 1 -1 -1 -1
 11 -1 0 0 0 0 0 0 5 5 0 0. 9.
 -11 -1 0 0 0 0 0 0 -4.99866 4.99866 0 0. 9.
 15 1 1 2 0 0 -1.60943 -1.02901 4.26523 4.9999 1.7768 0. 1
 -15 1 1 2 0 0 1.60943 1.02901 -4.26388 4.99876 1.7768 0. -1
</event>
<event>
 4 80 1 -1 -1 -1
 11 -1 0 0 0 0 0 0 2.12403 2.12403 0 0. 9.
 -11 -1 0 0 0 0 0 0 -5 5 0 0. 9.
 15 1 1 2 0 0 -0.699882 -0.40189 1.4146 2.41043 1.7768 0. 1
 -15 1 1 2 0 0 0.699882 0.40189 -4.29057 4.7136 1.7768 0. -1
</event>
<event>
 4 80 1 -1 -1 -1
 11 -1 0 0 0 0 0 0 5 5 0 0. 9.
 -11 -1 0 0 0 0 0 0 -4.99947 4.99947 0 0. 9.
 15 1 1 2 0 0 2.43811 -3.9411 -0.602238 4.99971 1.7768 0. 1
 -15 1 1 2 0 0 -2.43811 3.9411 0.602764 4.99977 1.7768 0. -1
</event>
<event>
 4 80 1 -1 -1 -1
 11 -1 0 0 0 0 0 0 4.76318 4.76318 0 0. 9.
 -11 -1 0 0 0 0 0 0 -4.99824 4.99824 0 0. 9.
 15 1 1 2 0 0 -0.0179018 1.5206 -4.40097 4.98386 1.7768 0. 1
 -15 1 1 2 0 0 0.0179018 -1.5206 4.16591 4.77756 1.7768 0. -1
</event>
<event>
 4 80 1 -1 -1 -1
 11 -1 0 0 0 0 0 0 4.97804 4.97804 0 0. 9.
 -11 -1 0 0 0 0 0 0 -1.48165 1.48165 0 0. 9.
 15 1 1 2 0 0 -1.51965 -0.31016 0.147109 2.36324 1.7768 0. -1
 -15 1 1 2 0 0 1.51965 0.31016 3.34928 4.09646 1.7768 0. 1
</event>
<event>
 4 80 1 -1 -1 -1
 11 -1 0 0 0 0 0 0 4.99428 4.99428 0 0. 9.
 -11 -1 0 0 0 0 0 0 -5 5 0 0. 9.
 15 1 1 2 0 0 -1.42829 -2.2772 3.81656 4.99495 1.7768 0. -1
 -15 1 1 2 0 0 1.42829 2.2772 -3.82229 4.99933 1.7768 0. 1
</event>
<event>
 4 80 1 -1 -1 -1
 11 -1 0 0 0 0 0 0 5 5 0 0. 9.
 -11 -1 0 0 0 0 0 0 -5 5 0 0. 9.
 15 1 1 2 0 0 3.84749 1.65045 -2.07728 5 1.7768 0. -1
 -15 1 1 2 0 0 -3.84749 -1.65045 2.07728 5 1.7768 0. 1
</event>
<event>
 4 80 1 -1 -1 -1
 11 -1 0 0 0 0 0 0 5 5 0 0. 9.
 -11 -1 0 0 0 0 0 0 -4.97645 4.97645 0 0. 9.
 15 1 1 2 0 0 1.04224 1.70245 4.22366 4.99817 1.7768 0. 1
 -15 1 1 2 0 0 -1.04224 -1.70245 -4.20011 4.97828 1.7768 0. -1
</event>
<event>
 4 80 1 -1 -1 -1
 11 -1 0 0 0 0 0 0 5 5 0 0. 9.
 -11 -1 0 0 0 0 0 0 -4.93131 4.93131 0 0. 9.
 15 1 1 2 0 0 -3.71928 0.831177 2.67542 4.98392 1.7768 0. -1
 -15 1 1 2 0 0 3.71928 -0.831177 -2.60673 4.94739 1.7768 0. 1
</event>
<event>
 4 80 1 -1 -1 -1
 11 -1 0 0 0 0 0 0 5 5 0 0. 9.
 -11 -1 0 0 0 0 0 0 -5 5 0 0. 9.
 15 1 1 2 0 0 -3.86155 -2.10535 1.58056 5 1.7768 0. 1
 -15 1 1 2 0 0 3.86155 2.10535 -1.58056 5 1.7768 0. -1
</event>
<event>
 4 80 1 -1 -1 -1
 11 -1 0 0 0 0 0 0 4.99999 4.99999 0 0. 9.
 -11 -1 0 0 0 0 0 0 -2.34215 2.34215 0 0. 9.
 15 1 1 2 0 0 -2.84742 0.570015 0.956932 3.53641 1.7768 0. 1
 -15 1 1 2 0 0 2.84742 -0.570015 1.70091 3.80573 1.7768 0. -1
</event>
<event>
 4 80 1 -1 -1 -1
 11 -1 0 0 0 0 0 0 5 5 0 0. 9.
 -11 -1 0 0 0 0 0 0 -4.98666 4.98666 0 0. 9.
 15 1 1 2 0 0 1.91537 -3.88285 1.74747 4.99566 1.7768 0. -1
 -15 1 1 2 0 0 -1.91537 3.88285 -1.73413 4.99101 1.7768 0. 1
</event>
<event>
 4 80 1 -1 -1 -1
 11 -1 0 0 0 0 0 0 4.76563 4.76563 0 0. 9.
 -11 -1 0 0 0 0 0 0 -5 5 0 0. 9.
 15 1 1 2 0 0 -4.3582 -0.731422 -1.18592 4.90846 1.7768 0. 1
 -15 1 1 2 0 0 4.3582 0.731422 0.951555 4.85717 1.7768 0. -1
</event>
<event>
 4 80 1 -1 -1 -1
 11 -1 0 0 0 0 0 0 4.81008 4.81008 0 0. 9.
 -11 -1 0 0 0 0 0 0 -4.99959 4.99959 0 0. 9.
 15 1 1 2 0 0 -3.69254 1.77187 -2.124 4.94403 1.7768 0. 1
 -15 1 1 2 0 0 3.69254 -1.77187 1.93449 4.86563 1.7768 0. -1
</event>
<event>
 4 80 1 -1 -1 -1
 11 -1 0 0 0 0 0 0 5 5 0 0. 9.
 -11 -1 0 0 0 0 0 0 -5 5 0 0. 9.
 15 1 1 2 0 0 -4.47397 0.553232 -1.23279 5 1.7768 0. 1
 -15 1 1 2 0 0 4.47397 -0.553232 1.23279 5 1.7768 0. -1
</event>
<event>
 4 80 1 -1 -1 -1
 11 -1 0 0 0 0 0 0 4.32411 4.32411 0 0. 9.
 -11 -1 0 0 0 0 0 0 -4.9934 4.9934 0 0. 9.
 15 1 1 2 0 0 1.61478 1.97293 -3.79821 4.90755 1.7768 0. 1
 -15 1 1 2 0 0 -1.61478 -1.97293 3.12892 4.40997 1.7768 0. -1
</event>
<event>
 4 80 1 -1 -1 -1
 11 -1 0 0 0 0 0 0 5 5 0 0. 9.
 -11 -1 0 0 0 0 0 0 -5 5 0 0. 9.
 15 1 1 2 0 0 -0.333327 -0.696685 4.60932 5 1.7768 0. 1
 -15 1 1 2 0 0 0.333327 0.696685 -4.60932 5 1.7768 0. -1
</event>
<event>
 4 80 1 -1 -1 -1
 11 -1 0 0 0 0 0 0 4.99885 4.99885 0 0. 9.
 -11 -1 0 0 0 0 0 0 -5 5 0 0. 9.
 15 1 1 2 0 0 -4.05528 2.17152 0.821425 4.99933 1.7768 0. 1
 -15 1 1 2 0 0 4.05528 -2.17152 -0.82258 4.99952 1.7768 0. -1
</event>
<event>
 4 80 1 -1 -1 -1
 11 -1 0 0 0 0 0 0 5 5 0 0. 9.
 -11 -1 0 0 0 0 0 0 -5 5 0 0. 9.
 15 1 1 2 0 0 -3.5404 3.01915 -0.438797 5 1.7768 0. -1
 -15 1 1 2 0 0 3.5404 -3.01915 0.438797 5 1.7768 0. 1
</event>
<event>
 4 80 1 -1 -1 -1
 11 -1 0 0 0 0 0 0 1.31598 1.31598 0 0. 9.
 -11 -1 0 0 0 0 0 0 -4.93833 4.93833 0 0. 9.
 15 1 1 2 0 0 -0.652706 -0.0292497 -3.90524 4.33999 1.7768 0. -1
 -15 1 1 2 0 0 0.652706 0.0292497 0.28289 1.91432 1.7768 0. 1
</event>
<event>
 4 80 1 -1 -1 -1
 11 -1 0 0 0 0 0 0 4.99955 4.99955 0 0. 9.
 -11 -1 0 0 0 0 0 0 -5 5 0 0. 9.
 15 1 1 2 0 0 4.62194 -0.443947 -0.529956 4.9998 1.7768 0. 1
 -15 1 1 2 0 0 -4.62194 0.443947 0.529503 4.99975 1.7768 0. -1
</event>
<event>
 4 80 1 -1 -1 -1
 11 -1 0 0 0 0 0 0 4.22229 4.22229 0 0. 9.
 -11 -1 0 0 0 0 0 0 -5 5 0 0. 9.
 15 1 1 2 0 0 3.67421 0.745218 1.59267 4.44404 1.7768 0. 1
 -15 1 1 2 0 0 -3.67421 -0.745218 -2.37039 4.77825 1.7768 0. -1
</event>
<event>
 4 80 1 -1 -1 -1
 11 -1 0 0 0 0 0 0 5 5 0 0. 9.
 -11 -1 0 0 0 0 0 0 -5 5 0 0. 9.
 15 1 1 2 0 0 1.44879 4.12177 -1.6596 5 1.7768 0. -1
 -15 1 1 2 0 0 -1.44879 -4.12177 1.6596 5 1.7768 0. 1
</event>
<event>
 4 80 1 -1 -1 -1
 11 -1 0 0 0 0 0 0 4.99987 4.99987 0 0. 9.
 -11 -1 0 0 0 0 0 0 -4.81009 4.81009 0 0. 9.
 15 1 1 2 0 0 -1.33988 -4.35318 0.477906 4.91239 1.7768 0. 1
 -15 1 1 2 0 0 1.33988 4.35318 -0.288123 4.89757 1.7768 0. -1
</event>
<event>
 4 80 1 -1 -1 -1
 11 -1 0 0 0 0 0 0 5 5 0 0. 9.
 -11 -1 0 0 0 0 0 0 -4.98502 4.98502 0 0. 9.
 15 1 1 2 0 0 1.70741 -3.81891 2.07342 4.99561 1.7768 0. -1
 -15 1 1 2 0 0 -1.70741 3.81891 -2.05844 4.98941 1.7768 0. 1
</event>
<event>
 4 80 1 -1 -1 -1
 11 -1 0 0 0 0 0 0 5 5 0 0. 9.
 -11 -1 0 0 0 0 0 0 -5 5 0 0. 9.
 15 1 1 2 0 0 -1.2741 3.15214 3.20671 5 1.7768 0. -1
 -15 1 1 2 0 0 1.2741 -3.15214 -3.20671 5 1.7768 0. 1
</event>
<event>
 4 80 1 -1 -1 -1
 11 -1 0 0 0 0 0 0 5 5 0 0. 9.
 -11 -1 0 0 0 0 0 0 -4.05786 4.05786 0 0. 9.
 15 1 1 2 0 0 2.05733 -0.428452 4.05638 4.90185 1.7768 0. 1
 -15 1 1 2 0 0 -2.05733 0.428452 -3.11424 4.15601 1.7768 0. -1
</event>
<event>
 4 80 1 -1 -1 -1
 11 -1 0 0 0 0 0 0 4.99998 4.99998 0 0. 9.
 -11 -1 0 0 0 0 0 0 -4.94881 4.94881 0 0. 9.
 15 1 1 2 0 0 4.13255 -0.253843 2.13365 4.98524 1.7768 0. -1
 -15 1 1 2 0 0 -4.13255 0.253843 -2.08248 4.96355 1.7768 0. 1
</event>
<event>
 4 80 1 -1 -1 -1
 11 -1 0 0 0 0 0 0 5 5 0 0. 9.
 -11 -1 0 0 0 0 0 0 -5 5 0 0. 9.
 15 1 1 2 0 0 0.556428 -0.549047 -4.60773 5 1.7768 0. -1
 -15 1 1 2 0 0 -0.556428 0.549047 4.60773 5 1.7768 0. 1
</event>
<event>
 4 80 1 -1 -1 -1
 11 -1 0 0 0 0 0 0 5 5 0 0. 9.
 -11 -1 0 0 0 0 0 0 -4.25402 4.25402 0 0. 9.
 15 1 1 2 0 0 0.531485 4.22083 0.252239 4.61728 1.7768 0. -1
 -15 1 1 2 0 0 -0.531485 -4.22083 0.49374 4.63674 1.7768 0. 1
</event>
<event>
 4 80 1 -1 -1 -1
 11 -1 0 0 0 0 0 0 4.69202 4.69202 0 0. 9.
 -11 -1 0 0 0 0 0 0 -5 5 0 0. 9.
 15 1 1 2 0 0 3.95432 0.489638 -2.25885 4.9129 1.7768 0. 1
 -15 1 1 2 0 0 -3.95432 -0.489638 1.95087 4.77912 1.7768 0. -1
</event>
<event>
 4 80 1 -1 -1 -1
 11 -1 0 0 0 0 0 0 5 5 0 0. 9.
 -11 -1 0 0 0 0 0 0 -5 5 0 0. 9.
 15 1 1 2 0 0 2.92344 3.53041 -0.912137 5 1.7768 0. -1
 -15 1 1 2 0 0 -2.92344 -3.53041 0.912137 5 1.7768 0. 1
</event>
<event>
 4 80 1 -1 -1 -1
 11 -1 0 0 0 0 0 0 5 5 0 0. 9.
 -11 -1 0 0 0 0 0 0 -5 5 0 0. 9.
 15 1 1 2 0 0 -2.65112 -0.438381 -3.82383 5 1.7768 0. -1
 -15 1 1 2 0 0 2.65112 0.438381 3.82383 5 1.7768 0. 1
</event>
<event>
 4 80 1 -1 -1 -1
 11 -1 0 0 0 0 0 0 1.08743 1.08743 0 0. 9.
 -11 -1 0 0 0 0 0 0 -5 5 0 0. 9.
 15 1 1 2 0 0 0.103405 1.4187 -1.29579 2.6192 1.7768 0. 1
 -15 1 1 2 0 0 -0.103405 -1.4187 -2.61678 3.46823 1.7768 0. -1
</event>
<event>
 4 80 1 -1 -1 -1
 11 -1 0 0 0 0 0 0 5 5 0 0. 9.
 -11 -1 0 0 0 0 0 0 -5 5 0 0. 9.
 15 1 1 2 0 0 -3.25171 -1.97359 -2.71544 5 1.7768 0. 1
 -15 1 1 2 0 0 3.25171 1.97359 2.71544 5 1.7768 0. -1
</event>
<event>
 4 80 1 -1 -1 -1
 11 -1 0 0 0 0 0 0 5 5 0 0. 9.
 -11 -1 0 0 0 0 0 0 -5 5 0 0. 9.
 15 1 1 2 0 0 -3.43536 -2.92949 -1.20774 5 1.7768 0. -1
 -15 1 1 2 0 0 3.43536 2.92949 1.20774 5 1.7768 0. 1
</event>
<event>
 4 80 1 -1 -1 -1
 11 -1 0 0 0 0 0 0 2.09828 2.09828 0 0. 9.
 -11 -1 0 0 0 0 0 0 -4.99997 4.99997 0 0. 9.
 15 1 1 2 0 0 0.801863 -2.28187 -0.116159 3.00352 1.7768 0. -1
 -15 1 1 2 0 0 -0.801863 2.28187 -2.78553 4.09473 1.7768 0. 1
</event>
<event>
 4 80 1 -1 -1 -1
 11 -1 0 0 0 0 0 0 0.825602 0.825602 0 0. 9.
 -11 -1 0 0 0 0 0 0 -5 5 0 0. 9.
 15 1 1 2 0 0 0.0034137 0.63152 -3.17095 3.68938 1.7768 0. 1
 -15 1 1 2 0 0 -0.0034137 -0.63152 -1.00344 2.13623 1.7768 0. -1
</event>
<event>
 4 80 1 -1 -1 -1
 11 -1 0 0 0 0 0 0 2.94331 2.94331 0 0. 9.
 -11 -1 0 0 0 0 0 0 -1.56763 1.56763 0 0. 9.
 15 1 1 2 0 0 -0.158108 -1.15623 0.365155 2.15706 1.7768 0. 1
 -15 1 1 2 0 0 0.158108 1.15623 1.01053 2.35388 1.7768 0. -1
</event>
<event>
 4 80 1 -1 -1 -1
 11 -1 0 0 0 0 0 0 5 5 0 0. 9.
 -11 -1 0 0 0 0 0 0 -4.93219 4.93219 0 0. 9.
 15 1 1 2 0 0 -1.95765 -4.03768 1.20352 4.97408 1.7768 0. 1
 -15 1 1 2 0 0 1.95765 4.03768 -1.1357 4.95811 1.7768 0. -1
</event>
<event>
 4 80 1 -1 -1 -1
 11 -1 0 0 0 0 0 0 4.99866 4.99866 0 0. 9.
 -11 -1 0 0 0 0 0 0 -5 5 0 0. 9.
 15 1 1 2 0 0 -1.84413 -4.26931 0.455094 4.99927 1.7768 0. 1
 -15 1 1 2 0 0 1.84413 4.26931 -0.456433 4.99939 1.7768 0. -1
</event>
<event>
 4 80 1 -1 -1 -1
 11 -1 0 0 0 0 0 0 4.99999 4.99999 0 0. 9.
 -11 -1 0 0 0 0 0 0 -5 5 0 0. 9.
 15 1 1 2 0 0 -4.15746 -1.369 1.63818 5 1.7768 0. 1
 -15 1 1 2 0 0 4.15746 1.369 -1.63819 5 1.7768 0. -1
</event>
<event>
 4 80 1 -1 -1 -1
 11 -1 0 0 0 0 0 0 4.99436 4.99436 0 0. 9.
 -11 -1 0 0 0 0 0 0 -5 5 0 0. 9.
 15 1 1 2 0 0 0.409373 4.6436 0.2862 4.99702 1.7768 0. 1
 -15 1 1 2 0 0 -0.409373 -4.6436 -0.291835 4.99735 1.7768 0. -1
</event>
<event>
 4 80 1 -1 -1 -1
 11 -1 0 0 0 0 0 0 4.99988 4.99988 0 0. 9.
 -11 -1 0 0 0 0 0 0 -4.60569 4.60569 0 0. 9.
 15 1 1 2 0 0 0.34038 4.43491 0.490385 4.81482 1.7768 0. -1
 -15 1 1 2 0 0 -0.34038 -4.43491 -0.096187 4.79075 1.7768 0. 1
</event>
<event>
 4 80 1 -1 -1 -1
 11 -1 0 0 0 0 0 0 4.95411 4.95411 0 0. 9.
 -11 -1 0 0 0 0 0 0 -5 5 0 0. 9.
 15 1 1 2 0 0 -3.87446 2.50482 0.549132 4.97442 1.7768 0. 1
 -15 1 1 2 0 0 3.87446 -2.50482 -0.595021 4.97969 1.7768 0. -1
</event>
<event>
 4 80 1 -1 -1 -1
 11 -1 0 0 0 0 0 0 3.96583 3.96583 0 0. 9.
 -11 -1 0 0 0 0 0 0 -4.98773 4.98773 0 0. 9.
 15 1 1 2 0 0 2.37922 -2.71033 -2.42509 4.69525 1.7768 0. 1
 -15 1 1 2 0 0 -2.37922 2.71033 1.40319 4.25831 1.7768 0. -1
</event>
<event>
 4 80 1 -1 -1 -1
 11 -1 0 0 0 0 0 0 5 5 0 0. 9.
 -11 -1 0 0 0 0 0 0 -4.37787 4.37787 0 0. 9.
 15 1 1 2 0 0 1.98535 2.0769 3.55495 4.90414 1.7768 0. -1
 -15 1 1 2 0 0 -1.98535 -2.0769 -2.93283 4.47374 1.7768 0. 1
</event>
<event>
 4 80 1 -1 -1 -1
 11 -1 0 0 0 0 0 0 4.99998 4.99998 0 0. 9.
 -11 -1 0 0 0 0 0 0 -5 5 0 0. 9.
 15 1 1 2 0 0 4.17281 -1.64112 -1.31778 4.99999 1.7768 0. -1
 -15 1 1 2 0 0 -4.17281 1.64112 1.31776 4.99999 1.7768 0. 1
</event>
<event>
 4 80 1 -1 -1 -1
 11 -1 0 0 0 0 0 0 4.98606 4.98606 0 0. 9.
 -11 -1 0 0 0 0 0 0 -5 5 0 0. 9.
 15 1 1 2 0 0 4.15999 -0.397026 -2.08288 4.99593 1.7768 0. -1
 -15 1 1 2 0 0 -4.15999 0.397026 2.06894 4.99013 1.7768 0. 1
</event>
<event>
 4 80 1 -1 -1 -1
 11 -1 0 0 0 0 0 0 5 5 0 0. 9.
 -11 -1 0 0 0 0 0 0 -5 5 0 0. 9.
 15 1 1 2 0 0 3.86449 -2.60787 0.327109 5 1.7768 0. 1
 -15 1 1 2 0 0 -3.86449 2.60787 -0.327104 5 1.7768 0. -1
</event>
<event>
 4 80 1 -1 -1 -1
 11 -1 0 0 0 0 0 0 5 5 0 0. 9.
 -11 -1 0 0 0 0 0 0 -4.9999 4.9999 0 0. 9.
 15 1 1 2 0 0 2.49106 1.29802 3.73522 4.99999 1.7768 0. -1
 -15 1 1 2 0 0 -2.49106 -1.29802 -3.73512 4.99991 1.7768 0. 1
</event>
<event>
 4 80 1 -1 -1 -1
 11 -1 0 0 0 0 0 0 4.99947 4.99947 0 0. 9.
 -11 -1 0 0 0 0 0 0 -5 5 0 0. 9.
 15 1 1 2 0 0 0.816401 -4.28716 -1.67159 4.99982 1.7768 0. 1
 -15 1 1 2 0 0 -0.816401 4.28716 1.67105 4.99964 1.7768 0. -1
</event>
<event>
 4 80 1 -1 -1 -1
 11 -1 0 0 0 0 0 0 5 5 0 0. 9.
 -11 -1 0 0 0 0 0 0 -5 5 0 0. 9.
 15 1 1 2 0 0 1.72652 4.01996 -1.64357 5 1.7768 0. 1
 -15 1 1 2 0 0 -1.72652 -4.01996 1.64357 5 1.7768 0. -1
</event>
<event>
 4 80 1 -1 -1 -1
 11 -1 0 0 0 0 0 0 5 5 0 0. 9.
 -11 -1 0 0 0 0 0 0 -5 5 0 0. 9.
 15 1 1 2 0 0 3.08988 -1.66045 -3.08834 5 1.7768 0. -1
 -15 1 1 2 0 0 -3.08988 1.66045 3.08834 5 1.7768 0. 1
</event>
<event>
 4 80 1 -1 -1 -1
 11 -1 0 0 0 0 0 0 4.9852 4.9852 0 0. 9.
 -11 -1 0 0 0 0 0 0 -5 5 0 0. 9.
 15 1 1 2 0 0 3.36772 -2.04905 -2.50302 4.9963 1.7768 0. 1
 -15 1 1 2 0 0 -3.36772 2.04905 2.48822 4.9889 1.7768 0. -1
</event>
<event>
 4 80 1 -1 -1 -1
 11 -1 0 0 0 0 0 0 5 5 0 0. 9.
 -11 -1 0 0 0 0 0 0 -4.99834 4.99834 0 0. 9.
 15 1 1 2 0 0 4.12324 0.0508748 2.19862 4.99953 1.7768 0. -1
 -15 1 1 2 0 0 -4.12324 -0.0508748 -2.19696 4.9988 1.7768 0. 1
</event>
<event>
 4 80 1 -1 -1 -1
 11 -1 0 0 0 0 0 0 4.99999 4.99999 0 0. 9.
 -11 -1 0 0 0 0 0 0 -4.9479 4.9479 0 0. 9.
 15 1 1 2 0 0 0.694246 0.0786819 4.61888 4.998 1.7768 0. -1
 -15 1 1 2 0 0 -0.694246 -0.0786819 -4.56679 4.9499 1.7768 0. 1
</event>
<event>
 4 80 1 -1 -1 -1
 11 -1 0 0 0 0 0 0 4.05282 4.05282 0 0. 9.
 -11 -1 0 0 0 0 0 0 -4.99321 4.99321 0 0. 9.
 15 1 1 2 0 0 -3.98665 -0.67807 -1.32675 4.61206 1.7768 0. 1
 -15 1 1 2 0 0 3.98665 0.67807 0.386354 4.43397 1.7768 0. -1
</event>
<event>
 4 80 1 -1 -1 -1
 11 -1 0 0 0 0 0 0 5 5 0 0. 9.
 -11 -1 0 0 0 0 0 0 -5 5 0 0. 9.
 15 1 1 2 0 0 2.08071 2.09342 3.6236 5 1.7768 0. 1
 -15 1 1 2 0 0 -2.08071 -2.09342 -3.6236 5 1.7768 0. -1
</event>
<event>
 4 80 1 -1 -1 -1
 11 -1 0 0 0 0 0 0 4.9937 4.9937 0 0. 9.
 -11 -1 0 0 0 0 0 0 -4.99995 4.99995 0 0. 9.
 15 1 1 2 0 0 -0.991726 -3.90164 2.3642 4.99535 1.7768 0. -1
 -15 1 1 2 0 0 0.991726 3.90164 -2.37045 4.99831 1.7768 0. 1
</event>
<event>
 4 80 1 -1 -1 -1
 11 -1 0 0 0 0 0 0 5 5 0 0. 9.
 -11 -1 0 0 0 0 0 0 -4.99996 4.99996 0 0. 9.
 15 1 1 2 0 0 0.0072624 3.87763 -2.60882 4.99997 1.7768 0. 1
 -15 1 1 2 0 0 -0.0072624 -3.87763 2.60886 4.99999 1.7768 0. -1
</event>
<event>
 4 80 1 -1 -1 -1
 11 -1 0 0 0 0 0 0 4.99999 4.99999 0 0. 9.
 -11 -1 0 0 0 0 0 0 -5 5 0 0. 9.
 15 1 1 2 0 0 -1.90088 -3.27447 2.73983 4.99999 1.7768 0. 1
 -15 1 1 2 0 0 1.90088 3.27447 -2.73984 5 1.7768 0. -1
</event>
<event>
 4 80 1 -1 -1 -1
 11 -1 0 0 0 0 0 0 4.89037 4.89037 0 0. 9.
 -11 -1 0 0 0 0 0 0 -5 5 0 0. 9.
 15 1 1 2 0 0 -1.2418 -0.78359 4.32016 4.89669 1.7768 0. -1
 -15 1 1 2 0 0 1.2418 0.78359 -4.42979 4.99368 1.7768 0. 1
</event>
<event>
 4 80 1 -1 -1 -1
 11 -1 0 0 0 0 0 0 4.9282 4.9282 0 0. 9.
 -11 -1 0 0 0 0 0 0 -2.13521 2.13521 0 0. 9.
 15 1 1 2 0 0 -1.30925 2.31061 0.788372 3.29125 1.7768 0. 1
 -15 1 1 2 0 0 1.30925 -2.31061 2.00462 3.77217 1.7768 0. -1
</event>
<event>
 4 80 1 -1 -1 -1
 11 -1 0 0 0 0 0 0 5 5 0 0. 9.
 -11 -1 0 0 0 0 0 0 -5 5 0 0. 9.
 15 1 1 2 0 0 -0.664209 -3.98349 -2.35222 5 1.7768 0. -1
 -15 1 1 2 0 0 0.664209 3.98349 2.35222 5 1.7768 0. 1
</event>
<event>
 4 80 1 -1 -1 -1
 11 -1 0 0 0 0 0 0 4.74471 4.74471 0 0. 9.
 -11 -1 0 0 0 0 0 0 -5 5 0 0. 9.
 15 1 1 2 0 0 0.273406 -0.700796 4.34602 4.75516 1.7768 0. 1
 -15 1 1 2 0 0 -0.273406 0.700796 -4.60131 4.98956 1.7768 0. -1
</event>
<event>
 4 80 1 -1 -1 -1
 11 -1 0 0 0 0 0 0 5 5 0 0. 9.
 -11 -1 0 0 0 0 0 0 -5 5 0 0. 9.
 15 1 1 2 0 0 -0.401117 3.45705 3.11932 5 1.7768 0. -1
 -15 1 1 2 0 0 0.401117 -3.45705 -3.11932 5 1.7768 0. 1
</event>
<event>
 4 80 1 -1 -1 -1
 11 -1 0 0 0 0 0 0 5 5 0 0. 9.
 -11 -1 0 0 0 0 0 0 -5 5 0 0. 9.
 15 1 1 2 0 0 -1.98221 1.22385 -4.05158 5 1.7768 0. -1
 -15 1 1 2 0 0 1.98221 -1.22385 4.05158 5 1.7768 0. 1
</event>
<event>
 4 80 1 -1 -1 -1
 11 -1 0 0 0 0 0 0 4.99927 4.99927 0 0. 9.
 -11 -1 0 0 0 0 0 0 -4.85447 4.85447 0 0. 9.
 15 1 1 2 0 0 4.43457 -0.655732 1.0803 4.94168 1.7768 0. 1
 -15 1 1 2 0 0 -4.43457 0.655732 -0.9355 4.91206 1.7768 0. -1
</event>
<event>
 4 80 1 -1 -1 -1
 11 -1 0 0 0 0 0 0 4.92639 4.92639 0 0. 9.
 -11 -1 0 0 0 0 0 0 -4.99989 4.99989 0 0. 9.
 15 1 1 2 0 0 3.09587 -1.06385 3.2432 4.93885 1.7768 0. -1
 -15 1 1 2 0 0 -3.09587 1.06385 -3.3167 4.98743 1.7768 0. 1
</event>
<event>
 4 80 1 -1 -1 -1
 11 -1 0 0 0 0 0 0 5 5 0 0. 9.
 -11 -1 0 0 0 0 0 0 -5 5 0 0. 9.
 15 1 1 2 0 0 -3.26226 1.77084 -2.83973 5 1.7768 0. -1
 -15 1 1 2 0 0 3.26226 -1.77084 2.83973 5 1.7768 0. 1
</event>
<event>
 4 80 1 -1 -1 -1
 11 -1 0 0 0 0 0 0 2.89398 2.89398 0 0. 9.
 -11 -1 0 0 0 0 0 0 -5 5 0 0. 9.
 15 1 1 2 0 0 2.37993 0.628748 -3.4311 4.58143 1.7768 0. -1
 -15 1 1 2 0 0 -2.37993 -0.628748 1.32507 3.31254 1.7768 0. 1
</event>
<event>
 4 80 1 -1 -1 -1
 11 -1 0 0 0 0 0 0 5 5 0 0. 9.
 -11 -1 0 0 0 0 0 0 -5 5 0 0. 9.
 15 1 1 2 0 0 -2.83479 -0.0907501 -3.71456 5 1.7768 0. 1
 -15 1 1 2 0 0 2.83479 0.0907501 3.71456 5 1.7768 0. -1
</event>
<event>
 4 80 1 -1 -1 -1
 11 -1 0 0 0 0 0 0 5 5 0 0. 9.
 -11 -1 0 0 0 0 0 0 -4.99944 4.99944 0 0. 9.
 15 1 1 2 0 0 -0.663551 0.866995 4.54423 4.99997 1.7768 0. 1
 -15 1 1 2 0 0 0.663551 -0.866995 -4.54367 4.99947 1.7768 0. -1
</event>
<event>
 4 80 1 -1 -1 -1
 11 -1 0 0 0 0 0 0 1.21603 1.21603 0 0. 9.
 -11 -1 0 0 0 0 0 0 -4.9969 4.9969 0 0. 9.
 15 1 1 2 0 0 -0.908343 -0.953912 -3.26147 3.9408 1.7768 0. 1
 -15 1 1 2 0 0 0.908343 0.953912 -0.519397 2.27212 1.7768 0. -1
</event>
<event>
 4 80 1 -1 -1 -1
 11 -1 0 0 0 0 0 0 5 5 0 0. 9.
 -11 -1 0 0 0 0 0 0 -4.99935 4.99935 0 0. 9.
 15 1 1 2 0 0 0.772282 -0.22287 4.6039 4.99997 1.7768 0. 1
 -15 1 1 2 0 0 -0.772282 0.22287 -4.60326 4.99938 1.7768 0. -1
</event>
<event>
 4 80 1 -1 -1 -1
 11 -1 0 0 0 0 0 0 5 5 0 0. 9.
 -11 -1 0 0 0 0 0 0 -4.99986 4.99986 0 0. 9.
 15 1 1 2 0 0 3.94266 -0.909907 -2.33854 4.99989 1.7768 0. 1
 -15 1 1 2 0 0 -3.94266 0.909907 2.33868 4.99996 1.7768 0. -1
</event>
<event>
 4 80 1 -1 -1 -1
 11 -1 0 0 0 0 0 0 5 5 0 0. 9.
 -11 -1 0 0 0 0 0 0 -5 5 0 0. 9.
 15 1 1 2 0 0 -2.65897 3.81603 -0.458353 5 1.7768 0. -1
 -15 1 1 2 0 0 2.65897 -3.81603 0.458353 5 1.7768 0. 1
</event>
<event>
 4 80 1 -1 -1 -1
 11 -1 0 0 0 0 0 0 4.995 4.995 0 0. 9.
 -11 -1 0 0 0 0 0 0 -5 5 0 0. 9.
 15 1 1 2 0 0 -3.66185 -1.72049 2.3316 4.99633 1.7768 0. 1
 -15 1 1 2 0 0 3.66185 1.72049 -2.3366 4.99867 1.7768 0. -1
</event>
<event>
 4 80 1 -1 -1 -1
 11 -1 0 0 0 0 0 0 4.99936 4.99936 0 0. 9.
 -11 -1 0 0 0 0 0 0 -4.9996 4.9996 0 0. 9.
 15 1 1 2 0 0 0.435692 -4.57518 -0.845702 4.9995 1.7768 0. 1
 -15 1 1 2 0 0 -0.435692 4.57518 0.845464 4.99946 1.7768 0. -1
</event>
<event>
 4 80 1 -1 -1 -1
 11 -1 0 0 0 0 0 0 4.99303 4.99303 0 0. 9.
 -11 -1 0 0 0 0 0 0 -5 5 0 0. 9.
 15 1 1 2 0 0 -3.03119 0.0547663 -3.55543 4.99899 1.7768 0. 1
 -15 1 1 2 0 0 3.03119 -0.0547663 3.54846 4.99404 1.7768 0. -1
</event>
<event>
 4 80 1 -1 -1 -1
 11 -1 0 0 0 0 0 0 5 5 0 0. 9.
 -11 -1 0 0 0 0 0 0 -5 5 0 0. 9.
 15 1 1 2 0 0 -1.16828 -1.81802 4.14393 5 1.7768 0. -1
 -15 1 1 2 0 0 1.16828 1.81802 -4.14393 5 1.7768 0. 1
</event>
<event>
 4 80 1 -1 -1 -1
 11 -1 0 0 0 0 0 0 4.90954 4.90954 0 0. 9.
 -11 -1 0 0 0 0 0 0 -5 5 0 0. 9.
 15 1 1 2 0 0 3.79835 2.28378 -1.36698 4.96683 1.7768 0. -1
 -15 1 1 2 0 0 -3.79835 -2.28378 1.27652 4.9427 1.7768 0. 1
</event>
<event>
 4 80 1 -1 -1 -1
 11 -1 0 0 0 0 0 0 4.54832 4.54832 0 0. 9.
 -11 -1 0 0 0 0 0 0 -2.3009 2.3009 0 0. 9.
 15 1 1 2 0 0 -2.07564 -1.72541 1.28133 3.47633 1.7768 0. -1
 -15 1 1 2 0 0 2.07564 1.72541 0.966089 3.37289 1.7768 0. 1
</event>
<event>
 4 80 1 -1 -1 -1
 11 -1 0 0 0 0 0 0 5 5 0 0. 9.
 -11 -1 0 0 0 0 0 0 -5 5 0 0. 9.
 15 1 1 2 0 0 1.40904 1.24614 -4.27832 5 1.7768 0. 1
 -15 1 1 2 0 0 -1.40904 -1.24614 4.27832 5 1.7768 0. -1
</event>
<event>
 4 80 1 -1 -1 -1
 11 -1 0 0 0 0 0 0 5 5 0 0. 9.
 -11 -1 0 0 0 0 0 0 -4.64387 4.64387 0 0. 9.
 15 1 1 2 0 0 -2.14332 -0.914661 -3.64962 4.68059 1.7768 0. 1
 -15 1 1 2 0 0 2.14332 0.914661 4.00575 4.96328 1.7768 0. -1
</event>
<event>
 4 80 1 -1 -1 -1
 11 -1 0 0 0 0 0 0 5 5 0 0. 9.
 -11 -1 0 0 0 0 0 0 -5 5 0 0. 9.
 15 1 1 2 0 0 2.72246 0.0602876 -3.79827 5 1.7768 0. 1
 -15 1 1 2 0 0 -2.72246 -0.0602876 3.79827 5 1.7768 0. -1
</event>
<event>
 4 80 1 -1 -1 -1
 11 -1 0 0 0 0 0 0 4.99852 4.99852 0 0. 9.
 -11 -1 0 0 0 0 0 0 -5 5 0 0. 9.
 15 1 1 2 0 0 -2.26862 -2.71402 -3.05399 4.99971 1.7768 0. 1
 -15 1 1 2 0 0 2.26862 2.71402 3.05251 4.9988 1.7768 0. -1
</event>
<event>
 4 80 1 -1 -1 -1
 11 -1 0 0 0 0 0 0 5 5 0 0. 9.
 -11 -1 0 0 0 0 0 0 -5 5 0 0. 9.
 15 1 1 2 0 0 -1.79208 4.02546 1.5577 5 1.7768 0. 1
 -15 1 1 2 0 0 1.79208 -4.02546 -1.5577 5 1.7768 0. -1
</event>
<event>
 4 80 1 -1 -1 -1
 11 -1 0 0 0 0 0 0 4.999 4.999 0 0. 9.
 -11 -1 0 0 0 0 0 0 -5 5 0 0. 9.
 15 1 1 2 0 0 3.59991 1.39004 2.63498 4.99924 1.7768 0. -1
 -15 1 1 2 0 0 -3.59991 -1.39004 -2.63598 4.99976 1.7768 0. 1
</event>
<event>
 4 80 1 -1 -1 -1
 11 -1 0 0 0 0 0 0 4.9997 4.9997 0 0. 9.
 -11 -1 0 0 0 0 0 0 -5 5 0 0. 9.
 15 1 1 2 0 0 -0.553579 -0.040007 -4.64049 4.99999 1.7768 0. -1
 -15 1 1 2 0 0 0.553579 0.040007 4.64019 4.99971 1.7768 0. 1
</event>
<event>
 4 80 1 -1 -1 -1
 11 -1 0 0 0 0 0 0 3.55531 3.55531 0 0. 9.
 -11 -1 0 0 0 0 0 0 -4.96798 4.96798 0 0. 9.
 15 1 1 2 0 0 2.18013 1.48139 2.08132 3.79962 1.7768 0. -1
 -15 1 1 2 0 0 -2.18013 -1.48139 -3.49398 4.72368 1.7768 0. 1
</event>
<event>
 4 80 1 -1 -1 -1
 11 -1 0 0 0 0 0 0 5 5 0 0. 9.
 -11 -1 0 0 0 0 0 0 -5 5 0 0. 9.
 15 1 1 2 0 0 -4.5387 0.214913 1.09374 5 1.7768 0. -1
 -15 1 1 2 0 0 4.5387 -0.214913 -1.09374 5 1.7768 0. 1
</event>
<event>
 4 80 1 -1 -1 -1
 11 -1 0 0 0 0 0 0 5 5 0 0. 9.
 -11 -1 0 0 0 0 0 0 -4.93037 4.93037 0 0. 9.
 15 1 1 2 0 0 -1.25878 -0.840792 4.41701 4.99591 1.7768 0. -1
 -15 1 1 2 0 0 1.25878 0.840792 -4.34738 4.93446 1.7768 0. 1
</event>
<event>
 4 80 1 -1 -1 -1
 11 -1 0 0 0 0 0 0 4.99791 4.99791 0 0. 9.
 -11 -1 0 0 0 0 0 0 -5 5 0 0. 9.
 15 1 1 2 0 0 3.02027 -1.51999 3.22377 4.99828 1.7768 0. -1
 -15 1 1 2 0 0 -3.02027 1.51999 -3.22586 4.99963 1.7768 0. 1
</event>
<event>
 4 80 1 -1 -1 -1
 11 -1 0 0 0 0 0 0 4.99953 4.99953 0 0. 9.
 -11 -1 0 0 0 0 0 0 -4.30604 4.30604 0 0. 9.
 15 1 1 2 0 0 2.20798 3.47691 1.53595 4.74141 1.7768 0. 1
 -15 1 1 2 0 0 -2.20798 -3.47691 -0.842458 4.56416 1.7768 0. -1
</event>
<event>
 4 80 1 -1 -1 -1
 11 -1 0 0 0 0 0 0 5 5 0 0. 9.
 -11 -1 0 0 0 0 0 0 -5 5 0 0. 9.
 15 1 1 2 0 0 -2.51066 3.89442 -0.610206 5 1.7768 0. 1
 -15 1 1 2 0 0 2.51066 -3.89442 0.610206 5 1.7768 0. -1
</event>
<event>
 4 80 1 -1 -1 -1
 11 -1 0 0 0 0 0 0 5 5 0 0. 9.
 -11 -1 0 0 0 0 0 0 -5 5 0 0. 9.
 15 1 1 2 0 0 -3.08195 1.58662 3.13473 5 1.7768 0. 1
 -15 1 1 2 0 0 3.08195 -1.58662 -3.13473 5 1.7768 0. -1
</event>
<event>
 4 80 1 -1 -1 -1
 11 -1 0 0 0 0 0 0 4.93174 4.93174 0 0. 9.
 -11 -1 0 0 0 0 0 0 -4.73418 4.73418 0 0. 9.
 15 1 1 2 0 0 -3.55768 -0.607152 -2.57841 4.77825 1.7768 0. 1
 -15 1 1 2 0 0 3.55768 0.607152 2.77597 4.88768 1.7768 0. -1
</event>
<event>
 4 80 1 -1 -1 -1
 11 -1 0 0 0 0 0 0 5 5 0 0. 9.
 -11 -1 0 0 0 0 0 0 -1.2793 1.2793 0 0. 9.
 15 1 1 2 0 0 -0.863843 1.11629 0.474403 2.31843 1.7768 0. 1
 -15 1 1 2 0 0 0.863843 -1.11629 3.2463 3.96087 1.7768 0. -1
</event>
<event>
 4 80 1 -1 -1 -1
 11 -1 0 0 0 0 0 0 4.98723 4.98723 0 0. 9.
 -11 -1 0 0 0 0 0 0 -2.996 2.996 0 0. 9.
 15 1 1 2 0 0 0.787797 -3.30687 1.48871 4.11461 1.7768 0. 1
 -15 1 1 2 0 0 -0.787797 3.30687 0.502519 3.86862 1.7768 0. -1
</event>
<event>
 4 80 1 -1 -1 -1
 11 -1 0 0 0 0 0 0 4.71986 4.71986 0 0. 9.
 -11 -1 0 0 0 0 0 0 -5 5 0 0. 9.
 15 1 1 2 0 0 -1.21407 -2.0124 3.72389 4.74856 1.7768 0. 1
 -15 1 1 2 0 0 1.21407 2.0124 -4.00404 4.97129 1.7768 0. -1
</event>
<event>
 4 80 1 -1 -1 -1
 11 -1 0 0 0 0 0 0 4.82416 4.82416 0 0. 9.
 -11 -1 0 0 0 0 0 0 -5 5 0 0. 9.
 15 1 1 2 0 0 0.0666856 4.22962 -1.84003 4.94344 1.7768 0. -1
 -15 1 1 2 0 0 -0.0666856 -4.22962 1.66418 4.88072 1.7768 0. 1
</event>
<event>
 4 80 1 -1 -1 -1
 11 -1 0 0 0 0 0 0 5 5 0 0. 9.
 -11 -1 0 0 0 0 0 0 -4.99958 4.99958 0 0. 9.
 15 1 1 2 0 0 -4.31489 1.46349 1.03947 4.99983 1.7768 0. -1
 -15 1 1 2 0 0 4.31489 -1.46349 -1.03905 4.99974 1.7768 0. 1
</event>
<event>
 4 80 1 -1 -1 -1
 11 -1 0 0 0 0 0 0 4.98664 4.98664 0 0. 9.
 -11 -1 0 0 0 0 0 0 -4.99507 4.99507 0 0. 9.
 15 1 1 2 0 0 -0.596459 -0.745569 -4.56922 4.99471 1.7768 0. 1
 -15 1 1 2 0 0 0.596459 0.745569 4.56078 4.98699 1.7768 0. -1
</event>
<event>
 4 80 1 -1 -1 -1
 11 -1 0 0 0 0 0 0 4.10515 4.10515 0 0. 9.
 -11 -1 0 0 0 0 0 0 -5 5 0 0. 9.
 15 1 1 2 0 0 -1.06048 -2.91972 -3.23918 4.82695 1.7768 0. 1
 -15 1 1 2 0 0 1.06048 2.91972 2.34433 4.2782 1.7768 0. -1
</event>
<event>
 4 80 1 -1 -1 -1
 11 -1 0 0 0 0 0 0 5 5 0 0. 9.
 -11 -1 0 0 0 0 0 0 -4.98614 4.98614 0 0. 9.
 15 1 1 2 0 0 2.11519 -4.05238 -0.929665 4.99177 1.7768 0. 1
 -15 1 1 2 0 0 -2.11519 4.05238 0.943524 4.99437 1.7768 0. -1
</event>
<event>
 4 80 1 -1 -1 -1
 11 -1 0 0 0 0 0 0 5 5 0 0. 9.
 -11 -1 0 0 0 0 0 0 -2.51116 2.51116 0 0. 9.
 15 1 1 2 0 0 -1.28516 0.403486 4.16315 4.72271 1.7768 0. -1
 -15 1 1 2 0 0 1.28516 -0.403486 -1.67431 2.78845 1.7768 0. 1
</event>
<event>
 4 80 1 -1 -1 -1
 11 -1 0 0 0 0 0 0 4.99574 4.99574 0 0. 9.
 -11 -1 0 0 0 0 0 0 -4.79188 4.79188 0 0. 9.
 15 1 1 2 0 0 1.50087 2.88406 3.29806 4.96038 1.7768 0. -1
 -15 1 1 2 0 0 -1.50087 -2.88406 -3.0942 4.82724 1.7768 0. 1
</event>
<event>
 4 80 1 -1 -1 -1
 11 -1 0 0 0 0 0 0 5 5 0 0. 9.
 -11 -1 0 0 0 0 0 0 -5 5 0 0. 9.
 15 1 1 2 0 0 1.63917 2.14801 3.81333 5 1.7768 0. 1
 -15 1 1 2 0 0 -1.63917 -2.14801 -3.81333 5 1.7768 0. -1
</event>
<event>
 4 80 1 -1 -1 -1
 11 -1 0 0 0 0 0 0 4.7566 4.7566 0 0. 9.
 -11 -1 0 0 0 0 0 0 -4.75959 4.75959 0 0. 9.
 15 1 1 2 0 0 -4.40485 -0.278898 0.0342051 4.75808 1.7768 0. 1
 -15 1 1 2 0 0 4.40485 0.278898 -0.0371954 4.75811 1.7768 0. -1
</event>
<event>
 4 80 1 -1 -1 -1
 11 -1 0 0 0 0 0 0 4.99548 4.99548 0 0. 9.
 -11 -1 0 0 0 0 0 0 -5 5 0 0. 9.
 15 1 1 2 0 0 -2.31454 -4.05733 0.0229694 4.99773 1.7768 0. 1
 -15 1 1 2 0 0 2.31454 4.05733 -0.0274917 4.99775 1.7768 0. -1
</event>
<event>
 4 80 1 -1 -1 -1
 11 -1 0 0 0 0 0 0 5 5 0 0. 9.
 -11 -1 0 0 0 0 0 0 -5 5 0 0. 9.
 15 1 1 2 0 0 -4.3985 1.45854 0.606763 5 1.7768 0. -1
 -15 1 1 2 0 0 4.3985 -1.45854 -0.606763 5 1.7768 0. 1
</event>
<event>
 4 80 1 -1 -1 -1
 11 -1 0 0 0 0 0 0 4.36264 4.36264 0 0. 9.
 -11 -1 0 0 0 0 0 0 -5 5 0 0. 9.
 15 1 1 2 0 0 -0.845575 3.28294 2.36388 4.49871 1.7768 0. 1
 -15 1 1 2 0 0 0.845575 -3.28294 -3.00124 4.86394 1.7768 0. -1
</event>
<event>
 4 80 1 -1 -1 -1
 11 -1 0 0 0 0 0 0 5 5 0 0. 9.
 -11 -1 0 0 0 0 0 0 -5 5 0 0. 9.
 15 1 1 2 0 0 -1.54202 -1.64067 -4.09544 5 1.7768 0. -1
 -15 1 1 2 0 0 1.54202 1.64067 4.09544 5 1.7768 0. 1
</event>
<event>
 4 80 1 -1 -1 -1
 11 -1 0 0 0 0 0 0 4.99948 4.99948 0 0. 9.
 -11 -1 0 0 0 0 0 0 -4.76197 4.76197 0 0. 9.
 15 1 1 2 0 0 -0.958267 -4.09775 1.83387 4.92246 1.7768 0. 1
 -15 1 1 2 0 0 0.958267 4.09775 -1.59635 4.839 1.7768 0. -1
</event>
<event>
 4 80 1 -1 -1 -1
 11 -1 0 0 0 0 0 0 5 5 0 0. 9.
 -11 -1 0 0 0 0 0 0 -5 5 0 0. 9.
 15 1 1 2 0 0 1.97626 -0.476951 -4.20823 5 1.7768 0. 1
 -15 1 1 2 0 0 -1.97626 0.476951 4.20823 5 1.7768 0. -1
</event>
<event>
 4 80 1 -1 -1 -1
 11 -1 0 0 0 0 0 0 5 5 0 0. 9.
 -11 -1 0 0 0 0 0 0 -5 5 0 0. 9.
 15 1 1 2 0 0 -3.34079 1.91867 -2.64577 5 1.7768 0. -1
 -15 1 1 2 0 0 3.34079 -1.91867 2.64577 5 1.7768 0. 1
</event>
<event>
 4 80 1 -1 -1 -1
 11 -1 0 0 0 0 0 0 5 5 0 0. 9.
 -11 -1 0 0 0 0 0 0 -4.42763 4.42763 0 0. 9.
 15 1 1 2 0 0 -3.64206 -0.374105 2.65187 4.85744 1.7768 0. -1
 -15 1 1 2 0 0 3.64206 0.374105 -2.0795 4.57019 1.7768 0. 1
</event>
<event>
 4 80 1 -1 -1 -1
 11 -1 0 0 0 0 0 0 1.89392 1.89392 0 0. 9.
 -11 -1 0 0 0 0 0 0 -4.99995 4.99995 0 0. 9.
 15 1 1 2 0 0 -0.245594 -0.912633 -4.16044 4.62171 1.7768 0. -1
 -15 1 1 2 0 0 0.245594 0.912633 1.05441 2.27216 1.7768 0. 1
</event>
<event>
 4 80 1 -1 -1 -1
 11 -1 0 0 0 0 0 0 5 5 0 0. 9.
 -11 -1 0 0 0 0 0 0 -4.99113 4.99113 0 0. 9.
 15 1 1 2 0 0 -4.6067 -0.439986 -0.614156 4.99502 1.7768 0. -1
 -15 1 1 2 0 0 4.6067 0.439986 0.623025 4.99611 1.7768 0. 1
</event>
<event>
 4 80 1 -1 -1 -1
 11 -1 0 0 0 0 0 0 5 5 0 0. 9.
 -11 -1 0 0 0 0 0 0 -0.975758 0.975758 0 0. 9.
 15 1 1 2 0 0 0.0391591 -0.00881362 0.238334 1.79336 1.7768 0. 1
 -15 1 1 2 0 0 -0.0391591 0.00881362 3.78591 4.1824 1.7768 0. -1
</event>
<event>
 4 80 1 -1 -1 -1
 11 -1 0 0 0 0 0 0 5 5 0 0. 9.
 -11 -1 0 0 0 0 0 0 -5 5 0 0. 9.
 15 1 1 2 0 0 2.35402 2.53001 -3.14641 5 1.7768 0. -1
 -15 1 1 2 0 0 -2.35402 -2.53001 3.14641 5 1.7768 0. 1
</event>
<event>
 4 80 1 -1 -1 -1
 11 -1 0 0 0 0 0 0 4.92399 4.92399 0 0. 9.
 -11 -1 0 0 0 0 0 0 -3.08409 3.08409 0 0. 9.
 15 1 1 2 0 0 -0.943509 -2.38511 3.3185 4.55512 1.7768 0. 1
 -15 1 1 2 0 0 0.943509 2.38511 -1.4786 3.45296 1.7768 0. -1
</event>
<event>
 4 80 1 -1 -1 -1
 11 -1 0 0 0 0 0 0 5 5 0 0. 9.
 -11 -1 0 0 0 0 0 0 -5 5 0 0. 9.
 15 1 1 2 0 0 0.0859894 -1.99839 -4.2239 5 1.7768 0. -1
 -15 1 1 2 0 0 -0.0859894 1.99839 4.2239 5 1.7768 0. 1
</event>
<event>
 4 80 1 -1 -1 -1
 11 -1 0 0 0 0 0 0 5 5 0 0. 9.
 -11 -1 0 0 0 0 0 0 -5 5 0 0. 9.
 15 1 1 2 0 0 2.11094 1.65094 3.82892 5 1.7768 0. 1
 -15 1 1 2 0 0 -2.11094 -1.65094 -3.82892 5 1.7768 0. -1
</event>
<event>
 4 80 1 -1 -1 -1
 11 -1 0 0 0 0 0 0 5 5 0 0. 9.
 -11 -1 0 0 0 0 0 0 -5 5 0 0. 9.
 15 1 1 2 0 0 -2.32743 2.54733 -3.15222 5 1.7768 0. 1
 -15 1 1 2 0 0 2.32743 -2.54733 3.15222 5 1.7768 0. -1
</event>
<event>
 4 80 1 -1 -1 -1
 11 -1 0 0 0 0 0 0 2.22585 2.22585 0 0. 9.
 -11 -1 0 0 0 0 0 0 -5 5 0 0. 9.
 15 1 1 2 0 0 1.25383 -2.52941 -1.42932 3.62914 1.7768 0. -1
 -15 1 1 2 0 0 -1.25383 2.52941 -1.34483 3.5967 1.7768 0. 1
</event>
<event>
 4 80 1 -1 -1 -1
 11 -1 0 0 0 0 0 0 4.99922 4.99922 0 0. 9.
 -11 -1 0 0 0 0 0 0 -5 5 0 0. 9.
 15 1 1 2 0 0 -0.771812 -2.10022 4.10226 4.99929 1.7768 0. -1
 -15 1 1 2 0 0 0.771812 2.10022 -4.10304 4.99993 1.7768 0. 1
</event>
<event>
 4 80 1 -1 -1 -1
 11 -1 0 0 0 0 0 0 5 5 0 0. 9.
 -11 -1 0 0 0 0 0 0 -5 5 0 0. 9.
 15 1 1 2 0 0 -4.17815 -2.07773 0.26147 5 1.7768 0. 1
 -15 1 1 2 0 0 4.17815 2.07773 -0.26147 5 1.7768 0. -1
</event>
<event>
 4 80 1 -1 -1 -1
 11 -1 0 0 0 0 0 0 5 5 0 0. 9.
 -11 -1 0 0 0 0 0 0 -4.99999 4.99999 0 0. 9.
 15 1 1 2 0 0 -2.38758 -1.70115 -3.63974 4.99999 1.7768 0. -1
 -15 1 1 2 0 0 2.38758 1.70115 3.63975 5 1.7768 0. 1
</event>
<event>
 4 80 1 -1 -1 -1
 11 -1 0 0 0 0 0 0 5 5 0 0. 9.
 -11 -1 0 0 0 0 0 0 -4.99998 4.99998 0 0. 9.
 15 1 1 2 0 0 -1.44007 4.01575 -1.90841 4.99999 1.7768 0. -1
 -15 1 1 2 0 0 1.44007 -4.01575 1.90843 4.99999 1.7768 0. 1
</event>
<event>
 4 80 1 -1 -1 -1
 11 -1 0 0 0 0 0 0 4.99933 4.99933 0 0. 9.
 -11 -1 0 0 0 0 0 0 -5 5 0 0. 9.
 15 1 1 2 0 0 1.78095 4.3204 -0.0365279 4.99967 1.7768 0. -1
 -15 1 1 2 0 0 -1.78095 -4.3204 0.0358537 4.99966 1.7768 0. 1
</event>
<event>
 4 80 1 -1 -1 -1
 11 -1 0 0 0 0 0 0 4.99996 4.99996 0 0. 9.
 -11 -1 0 0 0 0 0 0 -5 5 0 0. 9.
 15 1 1 2 0 0 -1.94379 -2.47236 3.45702 4.99996 1.7768 0. 1
 -15 1 1 2 0 0 1.94379 2.47236 -3.45707 4.99999 1.7768 0. -1
</event>
<event>
 4 80 1 -1 -1 -1
 11 -1 0 0 0 0 0 0 5 5 0 0. 9.
 -11 -1 0 0 0 0 0 0 -5 5 0 0. 9.
 15 1 1 2 0 0 -4.20227 -1.15694 -1.68662 5 1.7768 0. -1
 -15 1 1 2 0 0 4.20227 1.15694 1.68662 5 1.7768 0. 1
</event>
<event>
 4 80 1 -1 -1 -1
 11 -1 0 0 0 0 0 0 5 5 0 0. 9.
 -11 -1 0 0 0 0 0 0 -5 5 0 0. 9.
 15 1 1 2 0 0 3.34191 3.01534 1.25762 5 1.7768 0. -1
 -15 1 1 2 0 0 -3.34191 -3.01534 -1.25762 5 1.7768 0. 1
</event>
<event>
 4 80 1 -1 -1 -1
 11 -1 0 0 0 0 0 0 5 5 0 0. 9.
 -11 -1 0 0 0 0 0 0 -5 5 0 0. 9.
 15 1 1 2 0 0 -0.224391 -3.86989 -2.61073 5 1.7768 0. -1
 -15 1 1 2 0 0 0.224391 3.86989 2.61073 5 1.7768 0. 1
</event>
<event>
 4 80 1 -1 -1 -1
 11 -1 0 0 0 0 0 0 5 5 0 0. 9.
 -11 -1 0 0 0 0 0 0 -4.99601 4.99601 0 0. 9.
 15 1 1 2 0 0 1.40106 4.43493 -0.434766 4.99783 1.7768 0. 1
 -15 1 1 2 0 0 -1.40106 -4.43493 0.438748 4.99818 1.7768 0. -1
</event>
<event>
 4 80 1 -1 -1 -1
 11 -1 0 0 0 0 0 0 2.36881 2.36881 0 0. 9.
 -11 -1 0 0 0 0 0 0 -4.93799 4.93799 0 0. 9.
 15 1 1 2 0 0 -2.44312 -1.13609 -2.49307 4.07832 1.7768 0. -1
 -15 1 1 2 0 0 2.44312 1.13609 -0.0761073 3.22848 1.7768 0. 1
</event>
<event>
 4 80 1 -1 -1 -1
 11 -1 0 0 0 0 0 0 5 5 0 0. 9.
 -11 -1 0 0 0 0 0 0 -4.99999 4.99999 0 0. 9.
 15 1 1 2 0 0 -1.26076 0.383779 -4.4839 4.99999 1.7768 0. -1
 -15 1 1 2 0 0 1.26076 -0.383779 4.48391 5 1.7768 0. 1
</event>
<event>
 4 80 1 -1 -1 -1
 11 -1 0 0 0 0 0 0 5 5 0 0. 9.
 -11 -1 0 0 0 0 0 0 -5 5 0 0. 9.
 15 1 1 2 0 0 4.46786 -0.990078 0.948821 5 1.7768 0. -1
 -15 1 1 2 0 0 -4.46786 0.990078 -0.948821 5 1.7768 0. 1
</event>
<event>
 4 80 1 -1 -1 -1
 11 -1 0 0 0 0 0 0 5 5 0 0. 9.
 -11 -1 0 0 0 0 0 0 -5 5 0 0. 9.
 15 1 1 2 0 0 -0.39078 0.140288 -4.65509 5 1.7768 0. -1
 -15 1 1 2 0 0 0.39078 -0.140288 4.65509 5 1.7768 0. 1
</event>
<event>
 4 80 1 -1 -1 -1
 11 -1 0 0 0 0 0 0 5 5 0 0. 9.
 -11 -1 0 0 0 0 0 0 -5 5 0 0. 9.
 15 1 1 2 0 0 -0.296198 3.42076 3.17064 5 1.7768 0. 1
 -15 1 1 2 0 0 0.296198 -3.42076 -3.17064 5 1.7768 0. -1
</event>
<event>
 4 80 1 -1 -1 -1
 11 -1 0 0 0 0 0 0 5 5 0 0. 9.
 -11 -1 0 0 0 0 0 0 -2.32193 2.32193 0 0. 9.
 15 1 1 2 0 0 -0.84315 -1.40673 3.91819 4.60432 1.7768 0. -1
 -15 1 1 2 0 0 0.84315 1.40673 -1.24012 2.71761 1.7768 0. 1
</event>
<event>
 4 80 1 -1 -1 -1
 11 -1 0 0 0 0 0 0 5 5 0 0. 9.
 -11 -1 0 0 0 0 0 0 -5 5 0 0. 9.
 15 1 1 2 0 0 -0.793705 4.33753 -1.54858 5 1.7768 0. -1
 -15 1 1 2 0 0 0.793705 -4.33753 1.54858 5 1.7768 0. 1
</event>
<event>
 4 80 1 -1 -1 -1
 11 -1 0 0 0 0 0 0 5 5 0 0. 9.
 -11 -1 0 0 0 0 0 0 -5 5 0 0. 9.
 15 1 1 2 0 0 1.2417 0.094378 -4.50461 5 1.7768 0. -1
 -15 1 1 2 0 0 -1.2417 -0.094378 4.50461 5 1.7768 0. 1
</event>
<event>
 4 80 1 -1 -1 -1
 11 -1 0 0 0 0 0 0 5 5 0 0. 9.
 -11 -1 0 0 0 0 0 0 -5 5 0 0. 9.
 15 1 1 2 0 0 2.29369 1.16331 3.9023 5 1.7768 0. -1
 -15 1 1 2 0 0 -2.29369 -1.16331 -3.9023 5 1.7768 0. 1
</event>
<event>
 4 80 1 -1 -1 -1
 11 -1 0 0 0 0 0 0 4.90424 4.90424 0 0. 9.
 -11 -1 0 0 0 0 0 0 -4.92489 4.92489 0 0. 9.
 15 1 1 2 0 0 -2.16954 2.96058 -2.75317 4.92033 1.7768 0. -1
 -15 1 1 2 0 0 2.16954 -2.96058 2.73252 4.9088 1.7768 0. 1
</event>
<event>
 4 80 1 -1 -1 -1
 11 -1 0 0 0 0 0 0 5 5 0 0. 9.
 -11 -1 0 0 0 0 0 0 -5 5 0 0. 9.
 15 1 1 2 0 0 -0.458235 1.93633 4.22882 5 1.7768 0. 1
 -15 1 1 2 0 0 0.458235 -1.93633 -4.22882 5 1.7768 0. -1
</event>
<event>
 4 80 1 -1 -1 -1
 11 -1 0 0 0 0 0 0 5 5 0 0. 9.
 -11 -1 0 0 0 0 0 0 -4.99976 4.99976 0 0. 9.
 15 1 1 2 0 0 0.378999 2.01349 -4.20027 4.99978 1.7768 0. -1
 -15 1 1 2 0 0 -0.378999 -2.01349 4.20051 4.99998 1.7768 0. 1
</event>
<event>
 4 80 1 -1 -1 -1
 11 -1 0 0 0 0 0 0 5 5 0 0. 9.
 -11 -1 0 0 0 0 0 0 -5 5 0 0. 9.
 15 1 1 2 0 0 2.89736 3.61518 -0.614844 5 1.7768 0. -1
 -15 1 1 2 0 0 -2.89736 -3.61518 0.614844 5 1.7768 0. 1
</event>
<event>
 4 80 1 -1 -1 -1
 11 -1 0 0 0 0 0 0 4.17647 4.17647 0 0. 9.
 -11 -1 0 0 0 0 0 0 -5 5 0 0. 9.
 15 1 1 2 0 0 -0.946791 1.42033 3.45232 4.24146 1.7768 0. -1
 -15 1 1 2 0 0 0.946791 -1.42033 -4.27585 4.93501 1.7768 0. 1
</event>
<event>
 4 80 1 -1 -1 -1
 11 -1 0 0 0 0 0 0 5 5 0 0. 9.
 -11 -1 0 0 0 0 0 0 -4.99996 4.99996 0 0. 9.
 15 1 1 2 0 0 -4.63208 -0.54418 -0.299574 4.99998 1.7768 0. 1
 -15 1 1 2 0 0 4.63208 0.54418 0.299617 4.99998 1.7768 0. -1
</event>
<event>
 4 80 1 -1 -1 -1
 11 -1 0 0 0 0 0 0 5 5 0 0. 9.
 -11 -1 0 0 0 0 0 0 -4.6468 4.6468 0 0. 9.
 15 1 1 2 0 0 -3.79555 -0.735612 2.44284 4.90637 1.7768 0. -1
 -15 1 1 2 0 0 3.79555 0.735612 -2.08963 4.74042 1.7768 0. 1
</event>
<event>
 4 80 1 -1 -1 -1
 11 -1 0 0 0 0 0 0 5 5 0 0. 9.
 -11 -1 0 0 0 0 0 0 -4.9937 4.9937 0 0. 9.
 15 1 1 2 0 0 -0.0170752 -0.642777 4.62887 4.99977 1.7768 0. 1
 -15 1 1 2 0 0 0.0170752 0.642777 -4.62257 4.99393 1.7768 0. -1
</event>
<event>
 4 80 1 -1 -1 -1
 11 -1 0 0 0 0 0 0 5 5 0 0. 9.
 -11 -1 0 0 0 0 0 0 -4.99997 4.99997 0 0. 9.
 15 1 1 2 0 0 1.51024 -3.28264 -2.96403 4.99998 1.7768 0. 1
 -15 1 1 2 0 0 -1.51024 3.28264 2.96406 4.99999 1.7768 0. -1
</event>
<event>
 4 80 1 -1 -1 -1
 11 -1 0 0 0 0 0 0 5 5 0 0. 9.
 -11 -1 0 0 0 0 0 0 -5 5 0 0. 9.
 15 1 1 2 0 0 4.12819 1.92506 -1.04618 5 1.7768 0. -1
 -15 1 1 2 0 0 -4.12819 -1.92506 1.04618 5 1.7768 0. 1
</event>
<event>
 4 80 1 -1 -1 -1
 11 -1 0 0 0 0 0 0 3.86347 3.86347 0 0. 9.
 -11 -1 0 0 0 0 0 0 -4.61244 4.61244 0 0. 9.
 15 1 1 2 0 0 -2.54864 0.192553 -3.23693 4.49089 1.7768 0. 1
 -15 1 1 2 0 0 2.54864 -0.192553 2.48797 3.98501 1.7768 0. -1
</event>
<event>
 4 80 1 -1 -1 -1
 11 -1 0 0 0 0 0 0 4.99338 4.99338 0 0. 9.
 -11 -1 0 0 0 0 0 0 -1.79808 1.79808 0 0. 9.
 15 1 1 2 0 0 -1.08444 -0.477064 3.97944 4.51633 1.7768 0. -1
 -15 1 1 2 0 0 1.08444 0.477064 -0.784133 2.27513 1.7768 0. 1
</event>
<event>
 4 80 1 -1 -1 -1
 11 -1 0 0 0 0 0 0 3.74966 3.74966 0 0. 9.
 -11 -1 0 0 0 0 0 0 -4.99894 4.99894 0 0. 9.
 15 1 1 2 0 0 3.76401 0.536574 0.449812 4.22087 1.7768 0. -1
 -15 1 1 2 0 0 -3.76401 -0.536574 -1.6991 4.52773 1.7768 0. 1
</event>
<event>
 4 80 1 -1 -1 -1
 11 -1 0 0 0 0 0 0 5 5 0 0. 9.
 -11 -1 0 0 0 0 0 0 -4.98916 4.98916 0 0. 9.
 15 1 1 2 0 0 2.34906 -1.64193 3.68972 4.99858 1.7768 0. 1
 -15 1 1 2 0 0 -2.34906 1.64193 -3.67889 4.99059 1.7768 0. -1
</event>
<event>
 4 80 1 -1 -1 -1
 11 -1 0 0 0 0 0 0 4.99889 4.99889 0 0. 9.
 -11 -1 0 0 0 0 0 0 -5 5 0 0. 9.
 15 1 1 2 0 0 -1.92848 2.42481 -3.49884 4.99983 1.7768 0. -1
 -15 1 1 2 0 0 1.92848 -2.42481 3.49773 4.99906 1.7768 0. 1
</event>
<event>
 4 80 1 -1 -1 -1
 11 -1 0 0 0 0 0 0 5 5 0 0. 9.
 -11 -1 0 0 0 0 0 0 -2.33165 2.33165 0 0. 9.
 15 1 1 2 0 0 0.720129 0.328913 -1.67846 2.56938 1.7768 0. -1
 -15 1 1 2 0 0 -0.720129 -0.328913 4.34681 4.76227 1.7768 0. 1
</event>
<event>
 4 80 1 -1 -1 -1
 11 -1 0 0 0 0 0 0 2.66276 2.66276 0 0. 9.
 -11 -1 0 0 0 0 0 0 -4.99999 4.99999 0 0. 9.
 15 1 1 2 0 0 1.99086 0.179943 -3.77477 4.62628 1.7768 0. 1
 -15 1 1 2 0 0 -1.99086 -0.179943 1.43754 3.03647 1.7768 0. -1
</event>
<event>
 4 80 1 -1 -1 -1
 11 -1 0 0 0 0 0 0 4.99996 4.99996 0 0. 9.
 -11 -1 0 0 0 0 0 0 -3.66007 3.66007 0 0. 9.
 15 1 1 2 0 0 -1.87222 1.52687 -2.41779 3.85227 1.7768 0. -1
 -15 1 1 2 0 0 1.87222 -1.52687 3.75768 4.80775 1.7768 0. 1
</event>
<event>
 4 80 1 -1 -1 -1
 11 -1 0 0 0 0 0 0 4.94792 4.94792 0 0. 9.
 -11 -1 0 0 0 0 0 0 -0.911098 0.911098 0 0. 9.
 15 1 1 2 0 0 0.65081 -0.259129 3.29765 3.8109 1.7768 0. -1
 -15 1 1 2 0 0 -0.65081 0.259129 0.739173 2.04812 1.7768 0. 1
</event>
<event>
 4 80 1 -1 -1 -1
 11 -1 0 0 0 0 0 0 5 5 0 0. 9.
 -11 -1 0 0 0 0 0 0 -5 5 0 0. 9.
 15 1 1 2 0 0 -0.964607 1.59525 -4.28567 5 1.7768 0. 1
 -15 1 1 2 0 0 0.964607 -1.59525 4.28567 5 1.7768 0. -1
</event>
<event>
 4 80 1 -1 -1 -1
 11 -1 0 0 0 0 0 0 4.98436 4.98436 0 0. 9.
 -11 -1 0 0 0 0 0 0 -5 5 0 0. 9.
 15 1 1 2 0 0 -1.79448 2.43726 3.54234 4.98662 1.7768 0. -1
 -15 1 1 2 0 0 1.79448 -2.43726 -3.55799 4.99774 1.7768 0. 1
</event>
<event>
 4 80 1 -1 -1 -1
 11 -1 0 0 0 0 0 0 5 5 0 0. 9.
 -11 -1 0 0 0 0 0 0 -4.99998 4.99998 0 0. 9.
 15 1 1 2 0 0 -4.14616 0.817861 1.99566 4.99999 1.7768 0. 1
 -15 1 1 2 0 0 4.14616 -0.817861 -1.99564 4.99998 1.7768 0. -1
</event>
<event>
 4 80 1 -1 -1 -1
 11 -1 0 0 0 0 0 0 5 5 0 0. 9.
 -11 -1 0 0 0 0 0 0 -5 5 0 0. 9.
 15 1 1 2 0 0 -0.740249 1.55711 4.34393 5 1.7768 0. 1
 -15 1 1 2 0 0 0.740249 -1.55711 -4.34392 5 1.7768 0. -1
</event>
<event>
 4 80 1 -1 -1 -1
 11 -1 0 0 0 0 0 0 5 5 0 0. 9.
 -11 -1 0 0 0 0 0 0 -2.88057 2.88057 0 0. 9.
 15 1 1 2 0 0 -0.499143 1.05725 4.3229 4.8179 1.7768 0. 1
 -15 1 1 2 0 0 0.499143 -1.05725 -2.20347 3.06267 1.7768 0. -1
</event>
<event>
 4 80 1 -1 -1 -1
 11 -1 0 0 0 0 0 0 5 5 0 0. 9.
 -11 -1 0 0 0 0 0 0 -4.99998 4.99998 0 0. 9.
 15 1 1 2 0 0 -1.98992 -3.79988 1.85562 4.99999 1.7768 0. -1
 -15 1 1 2 0 0 1.98992 3.79988 -1.8556 4.99999 1.7768 0. 1
</event>
<event>
 4 80 1 -1 -1 -1
 11 -1 0 0 0 0 0 0 5 5 0 0. 9.
 -11 -1 0 0 0 0 0 0 -5 5 0 0. 9.
 15 1 1 2 0 0 -4.08419 2.14573 0.74668 5 1.7768 0. -1
 -15 1 1 2 0 0 4.08419 -2.14573 -0.746681 5 1.7768 0. 1
</event>
<event>
 4 80 1 -1 -1 -1
 11 -1 0 0 0 0 0 0 4.99999 4.99999 0 0. 9.
 -11 -1 0 0 0 0 0 0 -5 5 0 0. 9.
 15 1 1 2 0 0 4.52811 1.12757 0.258831 4.99999 1.7768 0. 1
 -15 1 1 2 0 0 -4.52811 -1.12757 -0.258841 5 1.7768 0. -1
</event>
<event>
 4 80 1 -1 -1 -1
 11 -1 0 0 0 0 0 0 4.84951 4.84951 0 0. 9.
 -11 -1 0 0 0 0 0 0 -0.876481 0.876481 0 0. 9.
 15 1 1 2 0 0 0.855378 -0.497787 2.45396 3.18734 1.7768 0. 1
 -15 1 1 2 0 0 -0.855378 0.497787 1.51906 2.53865 1.7768 0. -1
</event>
<event>
 4 80 1 -1 -1 -1
 11 -1 0 0 0 0 0 0 5 5 0 0. 9.
 -11 -1 0 0 0 0 0 0 -5 5 0 0. 9.
 15 1 1 2 0 0 -2.81925 3.37346 -1.58551 5 1.7768 0. 1
 -15 1 1 2 0 0 2.81925 -3.37346 1.58551 5 1.7768 0. -1
</event>
<event>
 4 80 1 -1 -1 -1
 11 -1 0 0 0 0 0 0 4.99997 4.99997 0 0. 9.
 -11 -1 0 0 0 0 0 0 -4.88578 4.88578 0 0. 9.
 15 1 1 2 0 0 3.51784 -1.9457 -2.2036 4.91676 1.7768 0. -1
 -15 1 1 2 0 0 -3.51784 1.9457 2.31779 4.96899 1.7768 0. 1
</event>
<event>
 4 80 1 -1 -1 -1
 11 -1 0 0 0 0 0 0 4.99999 4.99999 0 0. 9.
 -11 -1 0 0 0 0 0 0 -5 5 0 0. 9.
 15 1 1 2 0 0 1.90649 3.14128 2.88788 4.99999 1.7768 0. -1
 -15 1 1 2 0 0 -1.90649 -3.14128 -2.88789 5 1.7768 0. 1
</event>
<event>
 4 80 1 -1 -1 -1
 11 -1 0 0 0 0 0 0 5 5 0 0. 9.
 -11 -1 0 0 0 0 0 0 -5 5 0 0. 9.
 15 1 1 2 0 0 2.95199 -3.52588 -0.834393 5 1.7768 0. 1
 -15 1 1 2 0 0 -2.95199 3.52588 0.834393 5 1.7768 0. -1
</event>
<event>
 4 80 1 -1 -1 -1
 11 -1 0 0 0 0 0 0 5 5 0 0. 9.
 -11 -1 0 0 0 0 0 0 -5 5 0 0. 9.
 15 1 1 2 0 0 0.807797 -1.48351 4.35763 5 1.7768 0. -1
 -15 1 1 2 0 0 -0.807797 1.48351 -4.35763 5 1.7768 0. 1
</event>
<event>
 4 80 1 -1 -1 -1
 11 -1 0 0 0 0 0 0 5 5 0 0. 9.
 -11 -1 0 0 0 0 0 0 -2.94033 2.94033 0 0. 9.
 15 1 1 2 0 0 -0.333709 -0.712148 4.45234 4.85794 1.7768 0. -1
 -15 1 1 2 0 0 0.333709 0.712148 -2.39268 3.08239 1.7768 0. 1
</event>
<event>
 4 80 1 -1 -1 -1
 11 -1 0 0 0 0 0 0 5 5 0 0. 9.
 -11 -1 0 0 0 0 0 0 -4.9994 4.9994 0 0. 9.
 15 1 1 2 0 0 3.529 -1.03308 2.88443 4.99987 1.7768 0. 1
 -15 1 1 2 0 0 -3.529 1.03308 -2.88383 4.99953 1.7768 0. -1
</event>
<event>
 4 80 1 -1 -1 -1
 11 -1 0 0 0 0 0 0 5 5 0 0. 9.
 -11 -1 0 0 0 0 0 0 -5 5 0 0. 9.
 15 1 1 2 0 0 3.17819 -1.53232 -3.06486 5 1.7768 0. -1
 -15 1 1 2 0 0 -3.17819 1.53232 3.06485 5 1.7768 0. 1
</event>
<event>
 4 80 1 -1 -1 -1
 11 -1 0 0 0 0 0 0 3.93821 3.93821 0 0. 9.
 -11 -1 0 0 0 0 0 0 -4.65521 4.65521 0 0. 9.
 15 1 1 2 0 0 -3.08281 -2.17989 -1.32094 4.37701 1.7768 0. -1
 -15 1 1 2 0 0 3.08281 2.17989 0.60394 4.21641 1.7768 0. 1
</event>
<event>
 4 80 1 -1 -1 -1
 11 -1 0 0 0 0 0 0 5 5 0 0. 9.
 -11 -1 0 0 0 0 0 0 -5 5 0 0. 9.
 15 1 1 2 0 0 -3.23724 0.156438 -3.36721 5 1.7768 0. -1
 -15 1 1 2 0 0 3.23724 -0.156438 3.36721 5 1.7768 0. 1
</event>
<event>
 4 80 1 -1 -1 -1
 11 -1 0 0 0 0 0 0 5 5 0 0. 9.
 -11 -1 0 0 0 0 0 0 -5 5 0 0. 9.
 15 1 1 2 0 0 -3.13186 3.4183 0.590706 5 1.7768 0. -1
 -15 1 1 2 0 0 3.13186 -3.4183 -0.590706 5 1.7768 0. 1
</event>
<event>
 4 80 1 -1 -1 -1
 11 -1 0 0 0 0 0 0 4.99562 4.99562 0 0. 9.
 -11 -1 0 0 0 0 0 0 -5 5 0 0. 9.
 15 1 1 2 0 0 -2.4138 -3.33195 -2.21399 4.99878 1.7768 0. -1
 -15 1 1 2 0 0 2.4138 3.33195 2.20961 4.99684 1.7768 0. 1
</event>
<event>
 4 80 1 -1 -1 -1
 11 -1 0 0 0 0 0 0 5 5 0 0. 9.
 -11 -1 0 0 0 0 0 0 -5 5 0 0. 9.
 15 1 1 2 0 0 1.00995 1.39278 -4.34539 5 1.7768 0. -1
 -15 1 1 2 0 0 -1.00995 -1.39278 4.34539 5 1.7768 0. 1
</event>
<event>
 4 80 1 -1 -1 -1
 11 -1 0 0 0 0 0 0 5 5 0 0. 9.
 -11 -1 0 0 0 0 0 0 -4.99875 4.99875 0 0. 9.
 15 1 1 2 0 0 2.2247 -0.374104 4.09291 4.99989 1.7768 0. -1
 -15 1 1 2 0 0 -2.2247 0.374104 -4.09166 4.99886 1.7768 0. 1
</event>
<event>
 4 80 1 -1 -1 -1
 11 -1 0 0 0 0 0 0 5 5 0 0. 9.
 -11 -1 0 0 0 0 0 0 -5 5 0 0. 9.
 15 1 1 2 0 0 -4.56182 -0.251227 0.984372 5 1.7768 0. 1
 -15 1 1 2 0 0 4.56182 0.251227 -0.984372 5 1.7768 0. -1
</event>
<event>
 4 80 1 -1 -1 -1
 11 -1 0 0 0 0 0 0 5 5 0 0. 9.
 -11 -1 0 0 0 0 0 0 -4.99932 4.99932 0 0. 9.
 15 1 1 2 0 0 4.48223 0.0790994 -1.31957 4.99957 1.7768 0. 1
 -15 1 1 2 0 0 -4.48223 -0.0790994 1.32026 4.99975 1.7768 0. -1
</event>
<event>
 4 80 1 -1 -1 -1
 11 -1 0 0 0 0 0 0 4.30151 4.30151 0 0. 9.
 -11 -1 0 0 0 0 0 0 -4.28485 4.28485 0 0. 9.
 15 1 1 2 0 0 -1.68817 -1.88008 -2.97312 4.2874 1.7768 0. 1
 -15 1 1 2 0 0 1.68817 1.88008 2.98978 4.29897 1.7768 0. -1
</event>
<event>
 4 80 1 -1 -1 -1
 11 -1 0 0 0 0 0 0 5 5 0 0. 9.
 -11 -1 0 0 0 0 0 0 -4.99996 4.99996 0 0. 9.
 15 1 1 2 0 0 -1.77393 -0.148173 -4.32124 4.99997 1.7768 0. -1
 -15 1 1 2 0 0 1.77393 0.148173 4.32128 5 1.7768 0. 1
</event>
<event>
 4 80 1 -1 -1 -1
 11 -1 0 0 0 0 0 0 5 5 0 0. 9.
 -11 -1 0 0 0 0 0 0 -5 5 0 0. 9.
 15 1 1 2 0 0 3.90148 -2.00764 -1.60938 5 1.7768 0. -1
 -15 1 1 2 0 0 -3.90148 2.00764 1.60938 5 1.7768 0. 1
</event>
<event>
 4 80 1 -1 -1 -1
 11 -1 0 0 0 0 0 0 4.87743 4.87743 0 0. 9.
 -11 -1 0 0 0 0 0 0 -4.98 4.98 0 0. 9.
 15 1 1 2 0 0 -1.55512 2.80265 -3.3467 4.963 1.7768 0. 1
 -15 1 1 2 0 0 1.55512 -2.80265 3.24414 4.89443 1.7768 0. -1
</event>
<event>
 4 80 1 -1 -1 -1
 11 -1 0 0 0 0 0 0 5 5 0 0. 9.
 -11 -1 0 0 0 0 0 0 -4.87743 4.87743 0 0. 9.
 15 1 1 2 0 0 -1.88474 1.3216 -3.93033 4.88918 1.7768 0. -1
 -15 1 1 2 0 0 1.88474 -1.3216 4.0529 4.98825 1.7768 0. 1
</event>
<event>
 4 80 1 -1 -1 -1
 11 -1 0 0 0 0 0 0 4.99954 4.99954 0 0. 9.
 -11 -1 0 0 0 0 0 0 -5 5 0 0. 9.
 15 1 1 2 0 0 0.265157 -1.30993 4.47791 4.99957 1.7768 0. -1
 -15 1 1 2 0 0 -0.265157 1.30993 -4.47837 4.99998 1.7768 0. 1
</event>
<event>
 4 80 1 -1 -1 -1
 11 -1 0 0 0 0 0 0 4.99774 4.99774 0 0. 9.
 -11 -1 0 0 0 0 0 0 -5 5 0 0. 9.
 15 1 1 2 0 0 0.432316 -2.89622 -3.642 4.99969 1.7768 0. -1
 -15 1 1 2 0 0 -0.432316 2.89622 3.63975 4.99805 1.7768 0. 1
</event>
<event>
 4 80 1 -1 -1 -1
 11 -1 0 0 0 0 0 0 4.97128 4.97128 0 0. 9.
 -11 -1 0 0 0 0 0 0 -4.99438 4.99438 0 0. 9.
 15 1 1 2 0 0 0.944932 -1.08045 4.41683 4.97257 1.7768 0. -1
 -15 1 1 2 0 0 -0.944932 1.08045 -4.43993 4.9931 1.7768 0. 1
</event>
<event>
 4 80 1 -1 -1 -1
 11 -1 0 0 0 0 0 0 2.39179 2.39179 0 0. 9.
 -11 -1 0 0 0 0 0 0 -5 5 0 0. 9.
 15 1 1 2 0 0 -1.79812 1.05278 0.952838 2.89952 1.7768 0. 1
 -15 1 1 2 0 0 1.79812 -1.05278 -3.56105 4.49226 1.7768 0. -1
</event>
<event>
 4 80 1 -1 -1 -1
 11 -1 0 0 0 0 0 0 4.94174 4.94174 0 0. 9.
 -11 -1 0 0 0 0 0 0 -4.99994 4.99994 0 0. 9.
 15 1 1 2 0 0 0.307212 3.63711 2.83934 4.95405 1.7768 0. -1
 -15 1 1 2 0 0 -0.307212 -3.63711 -2.89754 4.98763 1.7768 0. 1
</event>
<event>
 4 80 1 -1 -1 -1
 11 -1 0 0 0 0 0 0 5 5 0 0. 9.
 -11 -1 0 0 0 0 0 0 -4.77265 4.77265 0 0. 9.
 15 1 1 2 0 0 -0.556549 3.97834 -2.02434 4.83659 1.7768 0. -1
 -15 1 1 2 0 0 0.556549 -3.97834 2.25169 4.93606 1.7768 0. 1
</event>
<event>
 4 80 1 -1 -1 -1
 11 -1 0 0 0 0 0 0 5 5 0 0. 9.
 -11 -1 0 0 0 0 0 0 -5 5 0 0. 9.
 15 1 1 2 0 0 4.49577 -0.18907 -1.26277 5 1.7768 0. 1
 -15 1 1 2 0 0 -4.49577 0.18907 1.26277 5 1.7768 0. -1
</event>
<event>
 4 80 1 -1 -1 -1
 11 -1 0 0 0 0 0 0 4.98494 4.98494 0 0. 9.
 -11 -1 0 0 0 0 0 0 -4.99995 4.99995 0 0. 9.
 15 1 1 2 0 0 0.963265 1.85978 -4.17645 4.99871 1.7768 0. 1
 -15 1 1 2 0 0 -0.963265 -1.85978 4.16144 4.98618 1.7768 0. -1
</event>
<event>
 4 80 1 -1 -1 -1
 11 -1 0 0 0 0 0 0 5 5 0 0. 9.
 -11 -1 0 0 0 0 0 0 -4.99991 4.99991 0 0. 9.
 15 1 1 2 0 0 -1.50885 4.37337 0.662508 4.99996 1.7768 0. -1
 -15 1 1 2 0 0 1.50885 -4.37337 -0.662415 4.99995 1.7768 0. 1
</event>
<event>
 4 80 1 -1 -1 -1
 11 -1 0 0 0 0 0 0 1.71537 1.71537 0 0. 9.
 -11 -1 0 0 0 0 0 0 -4.9492 4.9492 0 0. 9.
 15 1 1 2 0 0 -0.627824 2.21406 -1.40068 3.22736 1.7768 0. -1
 -15 1 1 2 0 0 0.627824 -2.21406 -1.83315 3.43721 1.7768 0. 1
</event>
<event>
 4 80 1 -1 -1 -1
 11 -1 0 0 0 0 0 0 5 5 0 0. 9.
 -11 -1 0 0 0 0 0 0 -4.99922 4.99922 0 0. 9.
 15 1 1 2 0 0 3.51285 -1.40906 2.74135 4.99982 1.7768 0. 1
 -15 1 1 2 0 0 -3.51285 1.40906 -2.74057 4.9994 1.7768 0. -1
</event>
<event>
 4 80 1 -1 -1 -1
 11 -1 0 0 0 0 0 0 5 5 0 0. 9.
 -11 -1 0 0 0 0 0 0 -5 5 0 0. 9.
 15 1 1 2 0 0 -3.64948 -2.65797 1.2078 5 1.7768 0. 1
 -15 1 1 2 0 0 3.64948 2.65797 -1.2078 5 1.7768 0. -1
</event>
<event>
 4 80 1 -1 -1 -1
 11 -1 0 0 0 0 0 0 4.99349 4.99349 0 0. 9.
 -11 -1 0 0 0 0 0 0 -5 5 0 0. 9.
 15 1 1 2 0 0 -3.79472 -0.829041 2.58953 4.99506 1.7768 0. -1
 -15 1 1 2 0 0 3.79472 0.829041 -2.59604 4.99843 1.7768 0. 1
</event>
<event>
 4 80 1 -1 -1 -1
 11 -1 0 0 0 0 0 0 5 5 0 0. 9.
 -11 -1 0 0 0 0 0 0 -4.99999 4.99999 0 0. 9.
 15 1 1 2 0 0 3.36062 2.40478 2.183 5 1.7768 0. 1
 -15 1 1 2 0 0 -3.36062 -2.40478 -2.18299 5 1.7768 0. -1
</event>
<event>
 4 80 1 -1 -1 -1
 11 -1 0 0 0 0 0 0 5 5 0 0. 9.
 -11 -1 0 0 0 0 0 0 -4.99997 4.99997 0 0. 9.
 15 1 1 2 0 0 2.19296 -2.92039 -2.91622 4.99998 1.7768 0. -1
 -15 1 1 2 0 0 -2.19296 2.92039 2.91625 4.99999 1.7768 0. 1
</event>
<event>
 4 80 1 -1 -1 -1
 11 -1 0 0 0 0 0 0 3.49372 3.49372 0 0. 9.
 -11 -1 0 0 0 0 0 0 -5 5 0 0. 9.
 15 1 1 2 0 0 1.78864 2.61133 1.35209 3.87352 1.7768 0. 1
 -15 1 1 2 0 0 -1.78864 -2.61133 -2.85837 4.6202 1.7768 0. -1
</event>
<event>
 4 80 1 -1 -1 -1
 11 -1 0 0 0 0 0 0 4.99323 4.99323 0 0. 9.
 -11 -1 0 0 0 0 0 0 -5 5 0 0. 9.
 15 1 1 2 0 0 -0.144728 0.857282 4.58492 4.99351 1.7768 0. -1
 -15 1 1 2 0 0 0.144728 -0.857282 -4.59169 4.99972 1.7768 0. 1
</event>
<event>
 4 80 1 -1 -1 -1
 11 -1 0 0 0 0 0 0 4.99998 4.99998 0 0. 9.
 -11 -1 0 0 0 0 0 0 -4.45288 4.45288 0 0. 9.
 15 1 1 2 0 0 -2.20477 -3.427 1.85774 4.81812 1.7768 0. -1
 -15 1 1 2 0 0 2.20477 3.427 -1.31064 4.63474 1.7768 0. 1
</event>
<event>
 4 80 1 -1 -1 -1
 11 -1 0 0 0 0 0 0 5 5 0 0. 9.
 -11 -1 0 0 0 0 0 0 -5 5 0 0. 9.
 15 1 1 2 0 0 2.32378 1.03222 -3.92133 5 1.7768 0. 1
 -15 1 1 2 0 0 -2.32378 -1.03222 3.92133 5 1.7768 0. -1
</event>
<event>
 4 80 1 -1 -1 -1
 11 -1 0 0 0 0 0 0 5 5 0 0. 9.
 -11 -1 0 0 0 0 0 0 -4.9989 4.9989 0 0. 9.
 15 1 1 2 0 0 -2.20563 2.63076 3.17089 4.9998 1.7768 0. -1
 -15 1 1 2 0 0 2.20563 -2.63076 -3.16979 4.9991 1.7768 0. 1
</event>
<event>
 4 80 1 -1 -1 -1
 11 -1 0 0 0 0 0 0 1.14102 1.14102 0 0. 9.
 -11 -1 0 0 0 0 0 0 -5 5 0 0. 9.
 15 1 1 2 0 0 0.408361 -1.41098 -2.73205 3.57484 1.7768 0. -1
 -15 1 1 2 0 0 -0.408361 1.41098 -1.12692 2.56619 1.7768 0. 1
</event>
<event>
 4 80 1 -1 -1 -1
 11 -1 0 0 0 0 0 0 5 5 0 0. 9.
 -11 -1 0 0 0 0 0 0 -1.38898 1.38898 0 0. 9.
 15 1 1 2 0 0 -0.475162 -0.892375 3.82119 4.33374 1.7768 0. -1
 -15 1 1 2 0 0 0.475162 0.892375 -0.210165 2.05524 1.7768 0. 1
</event>
<event>
 4 80 1 -1 -1 -1
 11 -1 0 0 0 0 0 0 5 5 0 0. 9.
 -11 -1 0 0 0 0 0 0 -5 5 0 0. 9.
 15 1 1 2 0 0 -2.74168 1.17033 -3.59941 5 1.7768 0. -1
 -15 1 1 2 0 0 2.74168 -1.17033 3.59941 5 1.7768 0. 1
</event>
<event>
 4 80 1 -1 -1 -1
 11 -1 0 0 0 0 0 0 4.73639 4.73639 0 0. 9.
 -11 -1 0 0 0 0 0 0 -5 5 0 0. 9.
 15 1 1 2 0 0 4.2072 1.24372 -1.26219 4.8988 1.7768 0. -1
 -15 1 1 2 0 0 -4.2072 -1.24372 0.998575 4.83759 1.7768 0. 1
</event>
<event>
 4 80 1 -1 -1 -1
 11 -1 0 0 0 0 0 0 4.98619 4.98619 0 0. 9.
 -11 -1 0 0 0 0 0 0 -3.95473 3.95473 0 0. 9.
 15 1 1 2 0 0 -2.44449 -2.22984 2.90096 4.74563 1.7768 0. -1
 -15 1 1 2 0 0 2.44449 2.22984 -1.86949 4.19529 1.7768 0. 1
</event>
<event>
 4 80 1 -1 -1 -1
 11 -1 0 0 0 0 0 0 4.99525 4.99525 0 0. 9.
 -11 -1 0 0 0 0 0 0 -0.994691 0.994691 0 0. 9.
 15 1 1 2 0 0 0.371908 -0.482478 3.61255 4.07177 1.7768 0. -1
 -15 1 1 2 0 0 -0.371908 0.482478 0.388014 1.91817 1.7768 0. 1
</event>
<event>
 4 80 1 -1 -1 -1
 11 -1 0 0 0 0 0 0 4.99787 4.99787 0 0. 9.
 -11 -1 0 0 0 0 0 0 -5 5 0 0. 9.
 15 1 1 2 0 0 -3.95038 -1.26104 -2.15418 4.99939 1.7768 0. 1
 -15 1 1 2 0 0 3.95038 1.26104 2.15206 4.99848 1.7768 0. -1
</event>
<event>
 4 80 1 -1 -1 -1
 11 -1 0 0 0 0 0 0 5 5 0 0. 9.
 -11 -1 0 0 0 0 0 0 -4.88044 4.88044 0 0. 9.
 15 1 1 2 0 0 1.52749 -0.0661455 4.4083 4.99284 1.7768 0. -1
 -15 1 1 2 0 0 -1.52749 0.0661455 -4.28874 4.8876 1.7768 0. 1
</event>
<event>
 4 80 1 -1 -1 -1
 11 -1 0 0 0 0 0 0 4.99628 4.99628 0 0. 9.
 -11 -1 0 0 0 0 0 0 -3.50931 3.50931 0 0. 9.
 15 1 1 2 0 0 -1.44602 2.99926 2.58547 4.57481 1.7768 0. 1
 -15 1 1 2 0 0 1.44602 -2.99926 -1.0985 3.93077 1.7768 0. -1
</event>
<event>
 4 80 1 -1 -1 -1
 11 -1 0 0 0 0 0 0 5 5 0 0. 9.
 -11 -1 0 0 0 0 0 0 -4.99782 4.99782 0 0. 9.
 15 1 1 2 0 0 -0.373569 -0.135785 4.65656 4.99993 1.7768 0. -1
 -15 1 1 2 0 0 0.373569 0.135785 -4.65438 4.9979 1.7768 0. 1
</event>
<event>
 4 80 1 -1 -1 -1
 11 -1 0 0 0 0 0 0 5 5 0 0. 9.
 -11 -1 0 0 0 0 0 0 -5 5 0 0. 9.
 15 1 1 2 0 0 -3.61114 0.705645 -2.88167 5 1.7768 0. 1
 -15 1 1 2 0 0 3.61114 -0.705645 2.88167 5 1.7768 0. -1
</event>
<event>
 4 80 1 -1 -1 -1
 11 -1 0 0 0 0 0 0 5 5 0 0. 9.
 -11 -1 0 0 0 0 0 0 -4.96122 4.96122 0 0. 9.
 15 1 1 2 0 0 0.896636 2.00428 4.12153 4.99658 1.7768 0. -1
 -15 1 1 2 0 0 -0.896636 -2.00428 -4.08275 4.96464 1.7768 0. 1
</event>
<event>
 4 80 1 -1 -1 -1
 11 -1 0 0 0 0 0 0 5 5 0 0. 9.
 -11 -1 0 0 0 0 0 0 -5 5 0 0. 9.
 15 1 1 2 0 0 2.43073 -2.64081 -2.99332 5 1.7768 0. 1
 -15 1 1 2 0 0 -2.43073 2.64081 2.99332 5 1.7768 0. -1
</event>
<event>
 4 80 1 -1 -1 -1
 11 -1 0 0 0 0 0 0 5 5 0 0. 9.
 -11 -1 0 0 0 0 0 0 -5 5 0 0. 9.
 15 1 1 2 0 0 -3.54798 -0.688884 2.96303 5 1.7768 0. -1
 -15 1 1 2 0 0 3.54798 0.688884 -2.96303 5 1.7768 0. 1
</event>
<event>
 4 80 1 -1 -1 -1
 11 -1 0 0 0 0 0 0 4.99994 4.99994 0 0. 9.
 -11 -1 0 0 0 0 0 0 -5 5 0 0. 9.
 15 1 1 2 0 0 2.81886 -0.564079 3.68478 4.99995 1.7768 0. 1
 -15 1 1 2 0 0 -2.81886 0.564079 -3.68484 4.99999 1.7768 0. -1
</event>
<event>
 4 80 1 -1 -1 -1
 11 -1 0 0 0 0 0 0 1.39497 1.39497 0 0. 9.
 -11 -1 0 0 0 0 0 0 -5 5 0 0. 9.
 15 1 1 2 0 0 -1.06294 0.637593 -3.63096 4.22823 1.7768 0. -1
 -15 1 1 2 0 0 1.06294 -0.637593 0.025928 2.16674 1.7768 0. 1
</event>
<event>
 4 80 1 -1 -1 -1
 11 -1 0 0 0 0 0 0 5 5 0 0. 9.
 -11 -1 0 0 0 0 0 0 -5 5 0 0. 9.
 15 1 1 2 0 0 -3.78538 2.72155 -0.326114 5 1.7768 0. -1
 -15 1 1 2 0 0 3.78538 -2.72155 0.326115 5 1.7768 0. 1
</event>
<event>
 4 80 1 -1 -1 -1
 11 -1 0 0 0 0 0 0 5 5 0 0. 9.
 -11 -1 0 0 0 0 0 0 -2.46086 2.46086 0 0. 9.
 15 1 1 2 0 0 -2.60269 -0.0603316 -0.367274 3.17337 1.7768 0. 1
 -15 1 1 2 0 0 2.60269 0.0603316 2.90641 4.28749 1.7768 0. -1
</event>
<event>
 4 80 1 -1 -1 -1
 11 -1 0 0 0 0 0 0 5 5 0 0. 9.
 -11 -1 0 0 0 0 0 0 -5 5 0 0. 9.
 15 1 1 2 0 0 4.2083 1.14012 -1.68302 5 1.7768 0. -1
 -15 1 1 2 0 0 -4.2083 -1.14012 1.68302 5 1.7768 0. 1
</event>
<event>
 4 80 1 -1 -1 -1
 11 -1 0 0 0 0 0 0 5 5 0 0. 9.
 -11 -1 0 0 0 0 0 0 -5 5 0 0. 9.
 15 1 1 2 0 0 -2.63586 -0.343085 3.84406 5 1.7768 0. -1
 -15 1 1 2 0 0 2.63586 0.343085 -3.84406 5 1.7768 0. 1
</event>
<event>
 4 80 1 -1 -1 -1
 11 -1 0 0 0 0 0 0 5 5 0 0. 9.
 -11 -1 0 0 0 0 0 0 -4.99908 4.99908 0 0. 9.
 15 1 1 2 0 0 -1.28825 -4.34471 -1.14041 4.99944 1.7768 0. 1
 -15 1 1 2 0 0 1.28825 4.34471 1.14133 4.99965 1.7768 0. -1
</event>
<event>
 4 80 1 -1 -1 -1
 11 -1 0 0 0 0 0 0 4.99998 4.99998 0 0. 9.
 -11 -1 0 0 0 0 0 0 -5 5 0 0. 9.
 15 1 1 2 0 0 -0.330924 -1.57804 4.38661 4.99998 1.7768 0. -1
 -15 1 1 2 0 0 0.330924 1.57804 -4.38663 5 1.7768 0. 1
</event>
<event>
 4 80 1 -1 -1 -1
 11 -1 0 0 0 0 0 0 5 5 0 0. 9.
 -11 -1 0 0 0 0 0 0 -5 5 0 0. 9.
 15 1 1 2 0 0 0.609978 1.87195 4.23863 5 1.7768 0. -1
 -15 1 1 2 0 0 -0.609978 -1.87195 -4.23863 5 1.7768 0. 1
</event>
<event>
 4 80 1 -1 -1 -1
 11 -1 0 0 0 0 0 0 5 5 0 0. 9.
 -11 -1 0 0 0 0 0 0 -4.1089 4.1089 0 0. 9.
 15 1 1 2 0 0 1.67412 -3.81258 0.224695 4.53284 1.7768 0. -1
 -15 1 1 2 0 0 -1.67412 3.81258 0.666407 4.57605 1.7768 0. 1
</event>
<event>
 4 80 1 -1 -1 -1
 11 -1 0 0 0 0 0 0 4.99237 4.99237 0 0. 9.
 -11 -1 0 0 0 0 0 0 -3.79366 3.79366 0 0. 9.
 15 1 1 2 0 0 -3.42433 -0.236728 2.61812 4.66844 1.7768 0. 1
 -15 1 1 2 0 0 3.42433 0.236728 -1.41941 4.11759 1.7768 0. -1
</event>
<event>
 4 80 1 -1 -1 -1
 11 -1 0 0 0 0 0 0 4.59845 4.59845 0 0. 9.
 -11 -1 0 0 0 0 0 0 -5 5 0 0. 9.
 15 1 1 2 0 0 -2.81789 -1.02586 3.09478 4.66136 1.7768 0. 1
 -15 1 1 2 0 0 2.81789 1.02586 -3.49633 4.93709 1.7768 0. -1
</event>
<event>
 4 80 1 -1 -1 -1
 11 -1 0 0 0 0 0 0 5 5 0 0. 9.
 -11 -1 0 0 0 0 0 0 -4.97122 4.97122 0 0. 9.
 15 1 1 2 0 0 4.59259 -0.0504345 -0.762735 4.98337 1.7768 0. -1
 -15 1 1 2 0 0 -4.59259 0.0504345 0.791512 4.98785 1.7768 0. 1
</event>
<event>
 4 80 1 -1 -1 -1
 11 -1 0 0 0 0 0 0 4.68712 4.68712 0 0. 9.
 -11 -1 0 0 0 0 0 0 -4.99998 4.99998 0 0. 9.
 15 1 1 2 0 0 4.43102 -0.517534 -0.76998 4.86337 1.7768 0. -1
 -15 1 1 2 0 0 -4.43102 0.517534 0.45712 4.82374 1.7768 0. 1
</event>
<event>
 4 80 1 -1 -1 -1
 11 -1 0 0 0 0 0 0 5 5 0 0. 9.
 -11 -1 0 0 0 0 0 0 -4.99957 4.99957 0 0. 9.
 15 1 1 2 0 0 3.02632 -3.47508 -0.777841 4.99975 1.7768 0. 1
 -15 1 1 2 0 0 -3.02632 3.47508 0.778267 4.99982 1.7768 0. -1
</event>
<event>
 4 80 1 -1 -1 -1
 11 -1 0 0 0 0 0 0 5 5 0 0. 9.
 -11 -1 0 0 0 0 0 0 -5 5 0 0. 9.
 15 1 1 2 0 0 2.24236 4.09146 -0.272148 5 1.7768 0. -1
 -15 1 1 2 0 0 -2.24236 -4.09146 0.272148 5 1.7768 0. 1
</event>
<event>
 4 80 1 -1 -1 -1
 11 -1 0 0 0 0 0 0 5 5 0 0. 9.
 -11 -1 0 0 0 0 0 0 -1.09961 1.09961 0 0. 9.
 15 1 1 2 0 0 0.0873318 -0.75579 3.67646 4.15366 1.7768 0. 1
 -15 1 1 2 0 0 -0.0873318 0.75579 0.223932 1.94595 1.7768 0. -1
</event>
<event>
 4 80 1 -1 -1 -1
 11 -1 0 0 0 0 0 0 5 5 0 0. 9.
 -11 -1 0 0 0 0 0 0 -5 5 0 0. 9.
 15 1 1 2 0 0 2.26415 1.00486 -3.9631 5 1.7768 0. -1
 -15 1 1 2 0 0 -2.26415 -1.00486 3.9631 5 1.7768 0. 1
</event>
<event>
 4 80 1 -1 -1 -1
 11 -1 0 0 0 0 0 0 5 5 0 0. 9.
 -11 -1 0 0 0 0 0 0 -5 5 0 0. 9.
 15 1 1 2 0 0 2.80758 3.32963 1.69509 5 1.7768 0. 1
 -15 1 1 2 0 0 -2.80758 -3.32963 -1.69509 5 1.7768 0. -1
</event>
<event>
 4 80 1 -1 -1 -1
 11 -1 0 0 0 0 0 0 5 5 0 0. 9.
 -11 -1 0 0 0 0 0 0 -5 5 0 0. 9.
 15 1 1 2 0 0 4.17011 0.320308 2.08563 5 1.7768 0. -1
 -15 1 1 2 0 0 -4.17011 -0.320308 -2.08563 5 1.7768 0. 1
</event>
<event>
 4 80 1 -1 -1 -1
 11 -1 0 0 0 0 0 0 5 5 0 0. 9.
 -11 -1 0 0 0 0 0 0 -5 5 0 0. 9.
 15 1 1 2 0 0 -0.371624 0.223629 -4.6534 5 1.7768 0. -1
 -15 1 1 2 0 0 0.371624 -0.223629 4.6534 5 1.7768 0. 1
</event>
<event>
 4 80 1 -1 -1 -1
 11 -1 0 0 0 0 0 0 4.96585 4.96585 0 0. 9.
 -11 -1 0 0 0 0 0 0 -5 5 0 0. 9.
 15 1 1 2 0 0 1.22133 -3.44676 -2.89801 4.9928 1.7768 0. -1
 -15 1 1 2 0 0 -1.22133 3.44676 2.86386 4.97305 1.7768 0. 1
</event>
<event>
 4 80 1 -1 -1 -1
 11 -1 0 0 0 0 0 0 5 5 0 0. 9.
 -11 -1 0 0 0 0 0 0 -5 5 0 0. 9.
 15 1 1 2 0 0 3.61489 -0.346898 2.94186 5 1.7768 0. -1
 -15 1 1 2 0 0 -3.61489 0.346898 -2.94186 5 1.7768 0. 1
</event>
<event>
 4 80 1 -1 -1 -1
 11 -1 0 0 0 0 0 0 5 5 0 0. 9.
 -11 -1 0 0 0 0 0 0 -1.00435 1.00435 0 0. 9.
 15 1 1 2 0 0 -0.307708 -0.116681 3.77299 4.18347 1.7768 0. 1
 -15 1 1 2 0 0 0.307708 0.116681 0.222658 1.82088 1.7768 0. -1
</event>
<event>
 4 80 1 -1 -1 -1
 11 -1 0 0 0 0 0 0 4.99868 4.99868 0 0. 9.
 -11 -1 0 0 0 0 0 0 -4.99995 4.99995 0 0. 9.
 15 1 1 2 0 0 -4.43279 -1.476 -0.0856647 4.99932 1.7768 0. 1
 -15 1 1 2 0 0 4.43279 1.476 0.0843951 4.9993 1.7768 0. -1
</event>
<event>
 4 80 1 -1 -1 -1
 11 -1 0 0 0 0 0 0 5 5 0 0. 9.
 -11 -1 0 0 0 0 0 0 -3.48007 3.48007 0 0. 9.
 15 1 1 2 0 0 1.08485 -0.369604 4.41486 4.89512 1.7768 0. 1
 -15 1 1 2 0 0 -1.08485 0.369604 -2.89493 3.58495 1.7768 0. -1
</event>
<event>
 4 80 1 -1 -1 -1
 11 -1 0 0 0 0 0 0 5 5 0 0. 9.
 -11 -1 0 0 0 0 0 0 -4.99999 4.99999 0 0. 9.
 15 1 1 2 0 0 -2.34828 -2.37579 -3.26855 4.99999 1.7768 0. -1
 -15 1 1 2 0 0 2.34828 2.37579 3.26856 5 1.7768 0. 1
</event>
<event>
 4 80 1 -1 -1 -1
 11 -1 0 0 0 0 0 0 4.99978 4.99978 0 0. 9.
 -11 -1 0 0 0 0 0 0 -5 5 0 0. 9.
 15 1 1 2 0 0 3.35302 2.72345 -1.78371 4.99993 1.7768 0. -1
 -15 1 1 2 0 0 -3.35302 -2.72345 1.78349 4.99985 1.7768 0. 1
</event>
<event>
 4 80 1 -1 -1 -1
 11 -1 0 0 0 0 0 0 4.94485 4.94485 0 0. 9.
 -11 -1 0 0 0 0 0 0 -5 5 0 0. 9.
 15 1 1 2 0 0 3.75927 -0.48496 2.6556 4.95754 1.7768 0. -1
 -15 1 1 2 0 0 -3.75927 0.48496 -2.71075 4.9873 1.7768 0. 1
</event>
<event>
 4 80 1 -1 -1 -1
 11 -1 0 0 0 0 0 0 4.86386 4.86386 0 0. 9.
 -11 -1 0 0 0 0 0 0 -4.99988 4.99988 0 0. 9.
 15 1 1 2 0 0 -0.531596 2.85195 -3.63833 4.9811 1.7768 0. -1
 -15 1 1 2 0 0 0.531596 -2.85195 3.50231 4.88264 1.7768 0. 1
</event>
<event>
 4 80 1 -1 -1 -1
 11 -1 0 0 0 0 0 0 4.99995 4.99995 0 0. 9.
 -11 -1 0 0 0 0 0 0 -4.92934 4.92934 0 0. 9.
 15 1 1 2 0 0 1.02199 4.3277 -1.27443 4.95533 1.7768 0. -1
 -15 1 1 2 0 0 -1.02199 -4.3277 1.34505 4.97396 1.7768 0. 1
</event>
<event>
 4 80 1 -1 -1 -1
 11 -1 0 0 0 0 0 0 3.10446 3.10446 0 0. 9.
 -11 -1 0 0 0 0 0 0 -5 5 0 0. 9.
 15 1 1 2 0 0 1.39826 -1.10963 -4.06374 4.78102 1.7768 0. -1
 -15 1 1 2 0 0 -1.39826 1.10963 2.16821 3.32344 1.7768 0. 1
</event>
<event>
 4 80 1 -1 -1 -1
 11 -1 0 0 0 0 0 0 4.85969 4.85969 0 0. 9.
 -11 -1 0 0 0 0 0 0 -5 5 0 0. 9.
 15 1 1 2 0 0 2.87495 3.19801 -1.69763 4.953 1.7768 0. 1
 -15 1 1 2 0 0 -2.87495 -3.19801 1.55732 4.90668 1.7768 0. -1
</event>
<event>
 4 80 1 -1 -1 -1
 11 -1 0 0 0 0 0 0 5 5 0 0. 9.
 -11 -1 0 0 0 0 0 0 -5 5 0 0. 9.
 15 1 1 2 0 0 -2.30291 -1.69451 3.69696 5 1.7768 0. 1
 -15 1 1 2 0 0 2.30291 1.69451 -3.69696 5 1.7768 0. -1
</event>
<event>
 4 80 1 -1 -1 -1
 11 -1 0 0 0 0 0 0 4.61592 4.61592 0 0. 9.
 -11 -1 0 0 0 0 0 0 -5 5 0 0. 9.
 15 1 1 2 0 0 -3.37046 2.44158 1.42188 4.7435 1.7768 0. -1
 -15 1 1 2 0 0 3.37046 -2.44158 -1.80596 4.87242 1.7768 0. 1
</event>
<event>
 4 80 1 -1 -1 -1
 11 -1 0 0 0 0 0 0 4.51349 4.51349 0 0. 9.
 -11 -1 0 0 0 0 0 0 -5 5 0 0. 9.
 15 1 1 2 0 0 -3.31371 -2.12962 1.73259 4.6557 1.7768 0. -1
 -15 1 1 2 0 0 3.31371 2.12962 -2.2191 4.85779 1.7768 0. 1
</event>
<event>
 4 80 1 -1 -1 -1
 11 -1 0 0 0 0 0 0 5 5 0 0. 9.
 -11 -1 0 0 0 0 0 0 -5 5 0 0. 9.
 15 1 1 2 0 0 -2.98423 -1.36583 3.32734 5 1.7768 0. 1
 -15 1 1 2 0 0 2.98423 1.36583 -3.32734 5 1.7768 0. -1
</event>
<event>
 4 80 1 -1 -1 -1
 11 -1 0 0 0 0 0 0 4.99984 4.99984 0 0. 9.
 -11 -1 0 0 0 0 0 0 -5 5 0 0. 9.
 15 1 1 2 0 0 4.05448 2.16022 0.857905 4.99991 1.7768 0. -1
 -15 1 1 2 0 0 -4.05448 -2.16022 -0.858058 4.99993 1.7768 0. 1
</event>
<event>
 4 80 1 -1 -1 -1
 11 -1 0 0 0 0 0 0 5 5 0 0. 9.
 -11 -1 0 0 0 0 0 0 -5 5 0 0. 9.
 15 1 1 2 0 0 -1.50034 3.30435 2.94492 5 1.7768 0. 1
 -15 1 1 2 0 0 1.50034 -3.30435 -2.94492 5 1.7768 0. -1
</event>
<event>
 4 80 1 -1 -1 -1
 11 -1 0 0 0 0 0 0 5 5 0 0. 9.
 -11 -1 0 0 0 0 0 0 -4.62063 4.62063 0 0. 9.
 15 1 1 2 0 0 1.9624 -1.75272 3.80114 4.95273 1.7768 0. 1
 -15 1 1 2 0 0 -1.9624 1.75272 -3.42177 4.6679 1.7768 0. -1
</event>
<event>
 4 80 1 -1 -1 -1
 11 -1 0 0 0 0 0 0 5 5 0 0. 9.
 -11 -1 0 0 0 0 0 0 -4.99976 4.99976 0 0. 9.
 15 1 1 2 0 0 -1.73173 -2.39236 3.62211 4.99997 1.7768 0. -1
 -15 1 1 2 0 0 1.73173 2.39236 -3.62187 4.99979 1.7768 0. 1
</event>
<event>
 4 80 1 -1 -1 -1
 11 -1 0 0 0 0 0 0 3.04379 3.04379 0 0. 9.
 -11 -1 0 0 0 0 0 0 -4.18553 4.18553 0 0. 9.
 15 1 1 2 0 0 0.327952 1.62965 -3.21535 4.03231 1.7768 0. -1
 -15 1 1 2 0 0 -0.327952 -1.62965 2.07361 3.19701 1.7768 0. 1
</event>
<event>
 4 80 1 -1 -1 -1
 11 -1 0 0 0 0 0 0 5 5 0 0. 9.
 -11 -1 0 0 0 0 0 0 -5 5 0 0. 9.
 15 1 1 2 0 0 2.81659 0.22131 -3.72292 5 1.7768 0. 1
 -15 1 1 2 0 0 -2.81659 -0.22131 3.72292 5 1.7768 0. -1
</event>
<event>
 4 80 1 -1 -1 -1
 11 -1 0 0 0 0 0 0 3.9399 3.9399 0 0. 9.
 -11 -1 0 0 0 0 0 0 -4.82164 4.82164 0 0. 9.
 15 1 1 2 0 0 -0.0774391 -0.870409 -4.34339 4.77351 1.7768 0. -1
 -15 1 1 2 0 0 0.0774391 0.870409 3.46166 3.98803 1.7768 0. 1
</event>
<event>
 4 80 1 -1 -1 -1
 11 -1 0 0 0 0 0 0 5 5 0 0. 9.
 -11 -1 0 0 0 0 0 0 -4.97368 4.97368 0 0. 9.
 15 1 1 2 0 0 0.427222 -3.52196 -3.00744 4.97887 1.7768 0. 1
 -15 1 1 2 0 0 -0.427222 3.52196 3.03376 4.99481 1.7768 0. -1
</event>
<event>
 4 80 1 -1 -1 -1
 11 -1 0 0 0 0 0 0 5 5 0 0. 9.
 -11 -1 0 0 0 0 0 0 -4.97291 4.97291 0 0. 9.
 15 1 1 2 0 0 4.29133 1.06491 1.48231 4.99045 1.7768 0. 1
 -15 1 1 2 0 0 -4.29133 -1.06491 -1.45522 4.98247 1.7768 0. -1
</event>
<event>
 4 80 1 -1 -1 -1
 11 -1 0 0 0 0 0 0 5 5 0 0. 9.
 -11 -1 0 0 0 0 0 0 -4.99995 4.99995 0 0. 9.
 15 1 1 2 0 0 0.149245 -0.880813 -4.58734 4.99995 1.7768 0. -1
 -15 1 1 2 0 0 -0.149245 0.880813 4.58739 5 1.7768 0. 1
</event>
<event>
 4 80 1 -1 -1 -1
 11 -1 0 0 0 0 0 0 2.86548 2.86548 0 0. 9.
 -11 -1 0 0 0 0 0 0 -4.99305 4.99305 0 0. 9.
 15 1 1 2 0 0 3.15403 -0.0146662 -2.20249 4.23755 1.7768 0. -1
 -15 1 1 2 0 0 -3.15403 0.0146662 0.074919 3.62098 1.7768 0. 1
</event>
<event>
 4 80 1 -1 -1 -1
 11 -1 0 0 0 0 0 0 5 5 0 0. 9.
 -11 -1 0 0 0 0 0 0 -5 5 0 0. 9.
 15 1 1 2 0 0 -1.98776 0.412875 -4.20959 5 1.7768 0. 1
 -15 1 1 2 0 0 1.98776 -0.412875 4.20959 5 1.7768 0. -1
</event>
<event>
 4 80 1 -1 -1 -1
 11 -1 0 0 0 0 0 0 5 5 0 0. 9.
 -11 -1 0 0 0 0 0 0 -5 5 0 0. 9.
 15 1 1 2 0 0 0.10109 -0.570617 4.6375 5 1.7768 0. -1
 -15 1 1 2 0 0 -0.10109 0.570617 -4.6375 5 1.7768 0. 1
</event>
<event>
 4 80 1 -1 -1 -1
 11 -1 0 0 0 0 0 0 5 5 0 0. 9.
 -11 -1 0 0 0 0 0 0 -5 5 0 0. 9.
 15 1 1 2 0 0 3.95748 -2.44943 -0.425345 5 1.7768 0. 1
 -15 1 1 2 0 0 -3.95748 2.44943 0.425344 5 1.7768 0. -1
</event>
<event>
 4 80 1 -1 -1 -1
 11 -1 0 0 0 0 0 0 5 5 0 0. 9.
 -11 -1 0 0 0 0 0 0 -4.99845 4.99845 0 0. 9.
 15 1 1 2 0 0 -3.48773 3.05449 -0.582577 4.99913 1.7768 0. 1
 -15 1 1 2 0 0 3.48773 -3.05449 0.584127 4.99931 1.7768 0. -1
</event>
<event>
 4 80 1 -1 -1 -1
 11 -1 0 0 0 0 0 0 5 5 0 0. 9.
 -11 -1 0 0 0 0 0 0 -4.91094 4.91094 0 0. 9.
 15 1 1 2 0 0 0.38245 0.973491 -4.46154 4.91497 1.7768 0. 1
 -15 1 1 2 0 0 -0.38245 -0.973491 4.5506 4.99596 1.7768 0. -1
</event>
<event>
 4 80 1 -1 -1 -1
 11 -1 0 0 0 0 0 0 5 5 0 0. 9.
 -11 -1 0 0 0 0 0 0 -4.98777 4.98777 0 0. 9.
 15 1 1 2 0 0 -0.877748 -3.10477 3.37822 4.99801 1.7768 0. -1
 -15 1 1 2 0 0 0.877748 3.10477 -3.36599 4.98975 1.7768 0. 1
</event>
<event>
 4 80 1 -1 -1 -1
 11 -1 0 0 0 0 0 0 4.75019 4.75019 0 0. 9.
 -11 -1 0 0 0 0 0 0 -4.9523 4.9523 0 0. 9.
 15 1 1 2 0 0 -0.225478 -4.08075 -2.01544 4.89112 1.7768 0. -1
 -15 1 1 2 0 0 0.225478 4.08075 1.81334 4.81137 1.7768 0. 1
</event>
<event>
 4 80 1 -1 -1 -1
 11 -1 0 0 0 0 0 0 5 5 0 0. 9.
 -11 -1 0 0 0 0 0 0 -5 5 0 0. 9.
 15 1 1 2 0 0 -4.12198 -1.59238 -1.52181 5 1.7768 0. -1
 -15 1 1 2 0 0 4.12198 1.59238 1.52181 5 1.7768 0. 1
</event>
<event>
 4 80 1 -1 -1 -1
 11 -1 0 0 0 0 0 0 5 5 0 0. 9.
 -11 -1 0 0 0 0 0 0 -4.97043 4.97043 0 0. 9.
 15 1 1 2 0 0 2.31992 -1.62905 -3.68098 4.97425 1.7768 0. 1
 -15 1 1 2 0 0 -2.31992 1.62905 3.71055 4.99617 1.7768 0. -1
</event>
<event>
 4 80 1 -1 -1 -1
 11 -1 0 0 0 0 0 0 4.99999 4.99999 0 0. 9.
 -11 -1 0 0 0 0 0 0 -4.98939 4.98939 0 0. 9.
 15 1 1 2 0 0 3.21332 -0.224382 3.38368 4.99828 1.7768 0. 1
 -15 1 1 2 0 0 -3.21332 0.224382 -3.37308 4.99111 1.7768 0. -1
</event>
<event>
 4 80 1 -1 -1 -1
 11 -1 0 0 0 0 0 0 5 5 0 0. 9.
 -11 -1 0 0 0 0 0 0 -5 5 0 0. 9.
 15 1 1 2 0 0 3.77455 2.28157 1.54578 5 1.7768 0. 1
 -15 1 1 2 0 0 -3.77455 -2.28157 -1.54578 5 1.7768 0. -1
</event>
<event>
 4 80 1 -1 -1 -1
 11 -1 0 0 0 0 0 0 5 5 0 0. 9.
 -11 -1 0 0 0 0 0 0 -5 5 0 0. 9.
 15 1 1 2 0 0 -0.0960465 4.39388 1.58962 5 1.7768 0. -1
 -15 1 1 2 0 0 0.0960465 -4.39388 -1.58962 5 1.7768 0. 1
</event>
<event>
 4 80 1 -1 -1 -1
 11 -1 0 0 0 0 0 0 4.99999 4.99999 0 0. 9.
 -11 -1 0 0 0 0 0 0 -5 5 0 0. 9.
 15 1 1 2 0 0 -2.81489 -0.600735 3.68207 4.99999 1.7768 0. -1
 -15 1 1 2 0 0 2.81489 0.600735 -3.68209 5 1.7768 0. 1
</event>
<event>
 4 80 1 -1 -1 -1
 11 -1 0 0 0 0 0 0 5 5 0 0. 9.
 -11 -1 0 0 0 0 0 0 -5 5 0 0. 9.
 15 1 1 2 0 0 0.213174 4.66865 0.024068 5 1.7768 0. 1
 -15 1 1 2 0 0 -0.213174 -4.66865 -0.024068 5 1.7768 0. -1
</event>
<event>
 4 80 1 -1 -1 -1
 11 -1 0 0 0 0 0 0 5 5 0 0. 9.
 -11 -1 0 0 0 0 0 0 -5 5 0 0. 9.
 15 1 1 2 0 0 0.814897 -0.847376 4.52329 5 1.7768 0. -1
 -15 1 1 2 0 0 -0.814897 0.847376 -4.52329 5 1.7768 0. 1
</event>
<event>
 4 80 1 -1 -1 -1
 11 -1 0 0 0 0 0 0 4.99993 4.99993 0 0. 9.
 -11 -1 0 0 0 0 0 0 -5 5 0 0. 9.
 15 1 1 2 0 0 -1.1187 4.4687 0.788111 4.99996 1.7768 0. 1
 -15 1 1 2 0 0 1.1187 -4.4687 -0.788178 4.99997 1.7768 0. -1
</event>
<event>
 4 80 1 -1 -1 -1
 11 -1 0 0 0 0 0 0 5 5 0 0. 9.
 -11 -1 0 0 0 0 0 0 -4.96999 4.96999 0 0. 9.
 15 1 1 2 0 0 -2.54731 -3.46217 -1.77855 4.97959 1.7768 0. -1
 -15 1 1 2 0 0 2.54731 3.46217 1.80856 4.99039 1.7768 0. 1
</event>
<event>
 4 80 1 -1 -1 -1
 11 -1 0 0 0 0 0 0 5 5 0 0. 9.
 -11 -1 0 0 0 0 0 0 -5 5 0 0. 9.
 15 1 1 2 0 0 -0.645247 2.46881 -3.91546 5 1.7768 0. -1
 -15 1 1 2 0 0 0.645247 -2.46881 3.91547 5 1.7768 0. 1
</event>
<event>
 4 80 1 -1 -1 -1
 11 -1 0 0 0 0 0 0 4.95232 4.95232 0 0. 9.
 -11 -1 0 0 0 0 0 0 -5 5 0 0. 9.
 15 1 1 2 0 0 -2.62631 2.61179 -2.83188 4.98961 1.7768 0. -1
 -15 1 1 2 0 0 2.62631 -2.61179 2.7842 4.96271 1.7768 0. 1
</event>
<event>
 4 80 1 -1 -1 -1
 11 -1 0 0 0 0 0 0 5 5 0 0. 9.
 -11 -1 0 0 0 0 0 0 -5 5 0 0. 9.
 15 1 1 2 0 0 0.181359 -1.91993 4.25714 5 1.7768 0. 1
 -15 1 1 2 0 0 -0.181359 1.91993 -4.25714 5 1.7768 0. -1
</event>
<event>
 4 80 1 -1 -1 -1
 11 -1 0 0 0 0 0 0 4.99496 4.99496 0 0. 9.
 -11 -1 0 0 0 0 0 0 -4.90878 4.90878 0 0. 9.
 15 1 1 2 0 0 2.5885 -0.742163 3.7996 4.98456 1.7768 0. -1
 -15 1 1 2 0 0 -2.5885 0.742163 -3.71342 4.91918 1.7768 0. 1
</event>
<event>
 4 80 1 -1 -1 -1
 11 -1 0 0 0 0 0 0 4.99789 4.99789 0 0. 9.
 -11 -1 0 0 0 0 0 0 -5 5 0 0. 9.
 15 1 1 2 0 0 4.22757 -1.98625 -0.120138 4.99897 1.7768 0. 1
 -15 1 1 2 0 0 -4.22757 1.98625 0.118024 4.99892 1.7768 0. -1
</event>
<event>
 4 80 1 -1 -1 -1
 11 -1 0 0 0 0 0 0 5 5 0 0. 9.
 -11 -1 0 0 0 0 0 0 -4.9998 4.9998 0 0. 9.
 15 1 1 2 0 0 -1.82575 1.74031 -3.93427 4.99982 1.7768 0. -1
 -15 1 1 2 0 0 1.82575 -1.74031 3.93447 4.99998 1.7768 0. 1
</event>
<event>
 4 80 1 -1 -1 -1
 11 -1 0 0 0 0 0 0 4.99989 4.99989 0 0. 9.
 -11 -1 0 0 0 0 0 0 -1.20804 1.20804 0 0. 9.
 15 1 1 2 0 0 0.583453 -1.54049 1.37706 2.78704 1.7768 0. 1
 -15 1 1 2 0 0 -0.583453 1.54049 2.41479 3.42089 1.7768 0. -1
</event>
<event>
 4 80 1 -1 -1 -1
 11 -1 0 0 0 0 0 0 5 5 0 0. 9.
 -11 -1 0 0 0 0 0 0 -1.50676 1.50676 0 0. 9.
 15 1 1 2 0 0 -1.69578 -0.355071 3.13616 3.99938 1.7768 0. -1
 -15 1 1 2 0 0 1.69578 0.355071 0.357075 2.50739 1.7768 0. 1
</event>
<event>
 4 80 1 -1 -1 -1
 11 -1 0 0 0 0 0 0 5 5 0 0. 9.
 -11 -1 0 0 0 0 0 0 -5 5 0 0. 9.
 15 1 1 2 0 0 -1.54927 -3.66872 -2.44593 5 1.7768 0. -1
 -15 1 1 2 0 0 1.54927 3.66872 2.44593 5 1.7768 0. 1
</event>
<event>
 4 80 1 -1 -1 -1
 11 -1 0 0 0 0 0 0 4.99997 4.99997 0 0. 9.
 -11 -1 0 0 0 0 0 0 -5 5 0 0. 9.
 15 1 1 2 0 0 -1.94007 1.45928 -3.9936 5 1.7768 0. -1
 -15 1 1 2 0 0 1.94007 -1.45928 3.99358 4.99997 1.7768 0. 1
</event>
<event>
 4 80 1 -1 -1 -1
 11 -1 0 0 0 0 0 0 4.98978 4.98978 0 0. 9.
 -11 -1 0 0 0 0 0 0 -5 5 0 0. 9.
 15 1 1 2 0 0 -1.8547 3.01146 -3.05181 4.99801 1.7768 0. 1
 -15 1 1 2 0 0 1.8547 -3.01146 3.04159 4.99177 1.7768 0. -1
</event>
<event>
 4 80 1 -1 -1 -1
 11 -1 0 0 0 0 0 0 5 5 0 0. 9.
 -11 -1 0 0 0 0 0 0 -4.99997 4.99997 0 0. 9.
 15 1 1 2 0 0 0.962551 1.40159 -4.35328 4.99997 1.7768 0. -1
 -15 1 1 2 0 0 -0.962551 -1.40159 4.35331 5 1.7768 0. 1
</event>
<event>
 4 80 1 -1 -1 -1
 11 -1 0 0 0 0 0 0 4.96212 4.96212 0 0. 9.
 -11 -1 0 0 0 0 0 0 -4.99971 4.99971 0 0. 9.
 15 1 1 2 0 0 0.354798 -4.54862 0.895347 4.97747 1.7768 0. 1
 -15 1 1 2 0 0 -0.354798 4.54862 -0.932939 4.98437 1.7768 0. -1
</event>
<event>
 4 80 1 -1 -1 -1
 11 -1 0 0 0 0 0 0 5 5 0 0. 9.
 -11 -1 0 0 0 0 0 0 -5 5 0 0. 9.
 15 1 1 2 0 0 -1.37769 -1.22868 -4.29355 5 1.7768 0. 1
 -15 1 1 2 0 0 1.37769 1.22868 4.29355 5 1.7768 0. -1
</event>
<event>
 4 80 1 -1 -1 -1
 11 -1 0 0 0 0 0 0 4.94626 4.94626 0 0. 9.
 -11 -1 0 0 0 0 0 0 -5 5 0 0. 9.
 15 1 1 2 0 0 -4.59213 -0.65433 -0.267343 4.97443 1.7768 0. -1
 -15 1 1 2 0 0 4.59213 0.65433 0.213606 4.97183 1.7768 0. 1
</event>
<event>
 4 80 1 -1 -1 -1
 11 -1 0 0 0 0 0 0 4.66634 4.66634 0 0. 9.
 -11 -1 0 0 0 0 0 0 -4.98652 4.98652 0 0. 9.
 15 1 1 2 0 0 1.89809 2.9877 2.59496 4.73505 1.7768 0. 1
 -15 1 1 2 0 0 -1.89809 -2.9877 -2.91514 4.91781 1.7768 0. -1
</event>
<event>
 4 80 1 -1 -1 -1
 11 -1 0 0 0 0 0 0 5 5 0 0. 9.
 -11 -1 0 0 0 0 0 0 -3.8068 3.8068 0 0. 9.
 15 1 1 2 0 0 0.231185 3.82818 1.68735 4.55118 1.7768 0. -1
 -15 1 1 2 0 0 -0.231185 -3.82818 -0.494155 4.25562 1.7768 0. 1
</event>
<event>
 4 80 1 -1 -1 -1
 11 -1 0 0 0 0 0 0 4.99988 4.99988 0 0. 9.
 -11 -1 0 0 0 0 0 0 -4.99978 4.99978 0 0. 9.
 15 1 1 2 0 0 -3.80751 -2.69897 -0.242807 4.99983 1.7768 0. 1
 -15 1 1 2 0 0 3.80751 2.69897 0.242901 4.99983 1.7768 0. -1
</event>
<event>
 4 80 1 -1 -1 -1
 11 -1 0 0 0 0 0 0 5 5 0 0. 9.
 -11 -1 0 0 0 0 0 0 -5 5 0 0. 9.
 15 1 1 2 0 0 -0.415878 -1.53856 -4.39342 5 1.7768 0. 1
 -15 1 1 2 0 0 0.415878 1.53856 4.39342 5 1.7768 0. -1
</event>
<event>
 4 80 1 -1 -1 -1
 11 -1 0 0 0 0 0 0 1.45403 1.45403 0 0. 9.
 -11 -1 0 0 0 0 0 0 -4.99302 4.99302 0 0. 9.
 15 1 1 2 0 0 -0.393071 0.204572 0.594919 1.92562 1.7768 0. 1
 -15 1 1 2 0 0 0.393071 -0.204572 -4.13391 4.52143 1.7768 0. -1
</event>
<event>
 4 80 1 -1 -1 -1
 11 -1 0 0 0 0 0 0 4.99915 4.99915 0 0. 9.
 -11 -1 0 0 0 0 0 0 -4.99999 4.99999 0 0. 9.
 15 1 1 2 0 0 4.13389 1.37471 1.69045 4.99943 1.7768 0. 1
 -15 1 1 2 0 0 -4.13389 -1.37471 -1.69129 4.99971 1.7768 0. -1
</event>
<event>
 4 80 1 -1 -1 -1
 11 -1 0 0 0 0 0 0 4.99999 4.99999 0 0. 9.
 -11 -1 0 0 0 0 0 0 -5 5 0 0. 9.
 15 1 1 2 0 0 0.310735 -1.66309 4.35657 4.99999 1.7768 0. -1
 -15 1 1 2 0 0 -0.310735 1.66309 -4.35659 5 1.7768 0. 1
</event>
<event>
 4 80 1 -1 -1 -1
 11 -1 0 0 0 0 0 0 5 5 0 0. 9.
 -11 -1 0 0 0 0 0 0 -5 5 0 0. 9.
 15 1 1 2 0 0 -1.2682 4.30635 1.29972 5 1.7768 0. -1
 -15 1 1 2 0 0 1.2682 -4.30635 -1.29972 5 1.7768 0. 1
</event>
<event>
 4 80 1 -1 -1 -1
 11 -1 0 0 0 0 0 0 4.99993 4.99993 0 0. 9.
 -11 -1 0 0 0 0 0 0 -4.29074 4.29074 0 0. 9.
 15 1 1 2 0 0 0.479634 -3.35006 -2.26892 4.44507 1.7768 0. -1
 -15 1 1 2 0 0 -0.479634 3.35006 2.97811 4.8456 1.7768 0. 1
</event>
<event>
 4 80 1 -1 -1 -1
 11 -1 0 0 0 0 0 0 5 5 0 0. 9.
 -11 -1 0 0 0 0 0 0 -2.1271 2.1271 0 0. 9.
 15 1 1 2 0 0 0.775648 -0.774028 4.17412 4.66709 1.7768 0. 1
 -15 1 1 2 0 0 -0.775648 0.774028 -1.30122 2.46001 1.7768 0. -1
</event>
<event>
 4 80 1 -1 -1 -1
 11 -1 0 0 0 0 0 0 5 5 0 0. 9.
 -11 -1 0 0 0 0 0 0 -4.99919 4.99919 0 0. 9.
 15 1 1 2 0 0 -1.69562 4.28911 0.753132 4.99966 1.7768 0. 1
 -15 1 1 2 0 0 1.69562 -4.28911 -0.752322 4.99953 1.7768 0. -1
</event>
<event>
 4 80 1 -1 -1 -1
 11 -1 0 0 0 0 0 0 4.99944 4.99944 0 0. 9.
 -11 -1 0 0 0 0 0 0 -5 5 0 0. 9.
 15 1 1 2 0 0 -4.67323 -0.0103981 0.0172224 4.99972 1.7768 0. 1
 -15 1 1 2 0 0 4.67323 0.0103981 -0.0177819 4.99972 1.7768 0. -1
</event>
<event>
 4 80 1 -1 -1 -1
 11 -1 0 0 0 0 0 0 5 5 0 0. 9.
 -11 -1 0 0 0 0 0 0 -5 5 0 0. 9.
 15 1 1 2 0 0 -3.94544 -2.31268 -0.962946 5 1.7768 0. -1
 -15 1 1 2 0 0 3.94544 2.31268 0.962947 5 1.7768 0. 1
</event>
<event>
 4 80 1 -1 -1 -1
 11 -1 0 0 0 0 0 0 1.40272 1.40272 0 0. 9.
 -11 -1 0 0 0 0 0 0 -2.47401 2.47401 0 0. 9.
 15 1 1 2 0 0 -0.38416 -0.351702 -0.747221 1.99683 1.7768 0. 1
 -15 1 1 2 0 0 0.38416 0.351702 -0.324064 1.8799 1.7768 0. -1
</event>
<event>
 4 80 1 -1 -1 -1
 11 -1 0 0 0 0 0 0 5 5 0 0. 9.
 -11 -1 0 0 0 0 0 0 -5 5 0 0. 9.
 15 1 1 2 0 0 2.32247 -2.62344 3.09289 5 1.7768 0. 1
 -15 1 1 2 0 0 -2.32247 2.62344 -3.09289 5 1.7768 0. -1
</event>
<event>
 4 80 1 -1 -1 -1
 11 -1 0 0 0 0 0 0 5 5 0 0. 9.
 -11 -1 0 0 0 0 0 0 -4.40687 4.40687 0 0. 9.
 15 1 1 2 0 0 -1.88105 0.920569 4.11084 4.94394 1.7768 0. -1
 -15 1 1 2 0 0 1.88105 -0.920569 -3.51771 4.46294 1.7768 0. 1
</event>
<event>
 4 80 1 -1 -1 -1
 11 -1 0 0 0 0 0 0 1.05413 1.05413 0 0. 9.
 -11 -1 0 0 0 0 0 0 -5 5 0 0. 9.
 15 1 1 2 0 0 -0.378638 -0.566369 -3.66598 4.13053 1.7768 0. 1
 -15 1 1 2 0 0 0.378638 0.566369 -0.27989 1.92359 1.7768 0. -1
</event>
<event>
 4 80 1 -1 -1 -1
 11 -1 0 0 0 0 0 0 4.99999 4.99999 0 0. 9.
 -11 -1 0 0 0 0 0 0 -4.98653 4.98653 0 0. 9.
 15 1 1 2 0 0 -0.690113 2.12845 4.10165 4.99878 1.7768 0. 1
 -15 1 1 2 0 0 0.690113 -2.12845 -4.08818 4.98774 1.7768 0. -1
</event>
<event>
 4 80 1 -1 -1 -1
 11 -1 0 0 0 0 0 0 4.03835 4.03835 0 0. 9.
 -11 -1 0 0 0 0 0 0 -1.12936 1.12936 0 0. 9.
 15 1 1 2 0 0 -0.180062 -0.0695275 0.0405232 1.78791 1.7768 0. 1
 -15 1 1 2 0 0 0.180062 0.0695275 2.86846 3.3798 1.7768 0. -1
</event>
<event>
 4 80 1 -1 -1 -1
 11 -1 0 0 0 0 0 0 1.89577 1.89577 0 0. 9.
 -11 -1 0 0 0 0 0 0 -5 5 0 0. 9.
 15 1 1 2 0 0 1.04438 0.826324 -3.94029 4.52296 1.7768 0. -1
 -15 1 1 2 0 0 -1.04438 -0.826324 0.836061 2.37282 1.7768 0. 1
</event>
<event>
 4 80 1 -1 -1 -1
 11 -1 0 0 0 0 0 0 5 5 0 0. 9.
 -11 -1 0 0 0 0 0 0 -5 5 0 0. 9.
 15 1 1 2 0 0 -3.57206 1.60112 -2.55325 5 1.7768 0. -1
 -15 1 1 2 0 0 3.57206 -1.60112 2.55325 5 1.7768 0. 1
</event>
<event>
 4 80 1 -1 -1 -1
 11 -1 0 0 0 0 0 0 5 5 0 0. 9.
 -11 -1 0 0 0 0 0 0 -4.99999 4.99999 0 0. 9.
 15 1 1 2 0 0 -3.76474 -2.7169 -0.536061 4.99999 1.7768 0. 1
 -15 1 1 2 0 0 3.76474 2.7169 0.53607 5 1.7768 0. -1
</event>
<event>
 4 80 1 -1 -1 -1
 11 -1 0 0 0 0 0 0 5 5 0 0. 9.
 -11 -1 0 0 0 0 0 0 -5 5 0 0. 9.
 15 1 1 2 0 0 -2.26971 -4.00907 -0.786154 5 1.7768 0. -1
 -15 1 1 2 0 0 2.26971 4.00907 0.786154 5 1.7768 0. 1
</event>
<event>
 4 80 1 -1 -1 -1
 11 -1 0 0 0 0 0 0 5 5 0 0. 9.
 -11 -1 0 0 0 0 0 0 -4.98046 4.98046 0 0. 9.
 15 1 1 2 0 0 -4.42793 -0.0380472 1.47148 4.99309 1.7768 0. 1
 -15 1 1 2 0 0 4.42793 0.0380472 -1.45194 4.98737 1.7768 0. -1
</event>
<event>
 4 80 1 -1 -1 -1
 11 -1 0 0 0 0 0 0 4.99027 4.99027 0 0. 9.
 -11 -1 0 0 0 0 0 0 -5 5 0 0. 9.
 15 1 1 2 0 0 3.33403 2.84379 1.60472 4.99357 1.7768 0. 1
 -15 1 1 2 0 0 -3.33403 -2.84379 -1.61445 4.9967 1.7768 0. -1
</event>
<event>
 4 80 1 -1 -1 -1
 11 -1 0 0 0 0 0 0 5 5 0 0. 9.
 -11 -1 0 0 0 0 0 0 -4.94446 4.94446 0 0. 9.
 15 1 1 2 0 0 0.93582 -3.55141 2.8697 4.9881 1.7768 0. -1
 -15 1 1 2 0 0 -0.93582 3.55141 -2.81416 4.95636 1.7768 0. 1
</event>
<event>
 4 80 1 -1 -1 -1
 11 -1 0 0 0 0 0 0 5 5 0 0. 9.
 -11 -1 0 0 0 0 0 0 -4.48666 4.48666 0 0. 9.
 15 1 1 2 0 0 -4.3099 -0.834281 0.322409 4.74689 1.7768 0. 1
 -15 1 1 2 0 0 4.3099 0.834281 0.190931 4.73977 1.7768 0. -1
</event>
<event>
 4 80 1 -1 -1 -1
 11 -1 0 0 0 0 0 0 5 5 0 0. 9.
 -11 -1 0 0 0 0 0 0 -5 5 0 0. 9.
 15 1 1 2 0 0 -1.33798 4.41665 0.738422 5 1.7768 0. -1
 -15 1 1 2 0 0 1.33798 -4.41665 -0.738422 5 1.7768 0. 1
</event>
<event>
 4 80 1 -1 -1 -1
 11 -1 0 0 0 0 0 0 5 5 0 0. 9.
 -11 -1 0 0 0 0 0 0 -5 5 0 0. 9.
 15 1 1 2 0 0 -1.11721 0.575647 4.50142 5 1.7768 0. 1
 -15 1 1 2 0 0 1.11721 -0.575647 -4.50142 5 1.7768 0. -1
</event>
<event>
 4 80 1 -1 -1 -1
 11 -1 0 0 0 0 0 0 5 5 0 0. 9.
 -11 -1 0 0 0 0 0 0 -4.98949 4.98949 0 0. 9.
 15 1 1 2 0 0 -1.82114 -0.659977 -4.24182 4.99028 1.7768 0. 1
 -15 1 1 2 0 0 1.82114 0.659977 4.25233 4.99921 1.7768 0. -1
</event>
<event>
 4 80 1 -1 -1 -1
 11 -1 0 0 0 0 0 0 5 5 0 0. 9.
 -11 -1 0 0 0 0 0 0 -5 5 0 0. 9.
 15 1 1 2 0 0 -3.39913 2.66642 -1.78281 5 1.7768 0. 1
 -15 1 1 2 0 0 3.39913 -2.66642 1.78281 5 1.7768 0. -1
</event>
<event>
 4 80 1 -1 -1 -1
 11 -1 0 0 0 0 0 0 1.27113 1.27113 0 0. 9.
 -11 -1 0 0 0 0 0 0 -5 5 0 0. 9.
 15 1 1 2 0 0 -0.936924 -1.32358 -2.802 3.69305 1.7768 0. -1
 -15 1 1 2 0 0 0.936924 1.32358 -0.92687 2.57808 1.7768 0. 1
</event>
<event>
 4 80 1 -1 -1 -1
 11 -1 0 0 0 0 0 0 5 5 0 0. 9.
 -11 -1 0 0 0 0 0 0 -5 5 0 0. 9.
 15 1 1 2 0 0 -3.66919 -0.107744 2.8927 5 1.7768 0. -1
 -15 1 1 2 0 0 3.66919 0.107744 -2.8927 5 1.7768 0. 1
</event>
<event>
 4 80 1 -1 -1 -1
 11 -1 0 0 0 0 0 0 4.98392 4.98392 0 0. 9.
 -11 -1 0 0 0 0 0 0 -4.99933 4.99933 0 0. 9.
 15 1 1 2 0 0 2.74412 1.93286 3.23149 4.98663 1.7768 0. -1
 -15 1 1 2 0 0 -2.74412 -1.93286 -3.2469 4.99662 1.7768 0. 1
</event>
<event>
 4 80 1 -1 -1 -1
 11 -1 0 0 0 0 0 0 1.08404 1.08404 0 0. 9.
 -11 -1 0 0 0 0 0 0 -4.97657 4.97657 0 0. 9.
 15 1 1 2 0 0 -1.434 0.424948 -1.96055 3.03948 1.7768 0. -1
 -15 1 1 2 0 0 1.434 -0.424948 -1.93198 3.02113 1.7768 0. 1
</event>
<event>
 4 80 1 -1 -1 -1
 11 -1 0 0 0 0 0 0 4.66488 4.66488 0 0. 9.
 -11 -1 0 0 0 0 0 0 -5 5 0 0. 9.
 15 1 1 2 0 0 4.49052 0.0288508 -0.135198 4.83132 1.7768 0. -1
 -15 1 1 2 0 0 -4.49052 -0.0288508 -0.199924 4.83356 1.7768 0. 1
</event>
<event>
 4 80 1 -1 -1 -1
 11 -1 0 0 0 0 0 0 2.77824 2.77824 0 0. 9.
 -11 -1 0 0 0 0 0 0 -4.99999 4.99999 0 0. 9.
 15 1 1 2 0 0 -1.08403 -3.09034 -1.20482 3.91595 1.7768 0. -1
 -15 1 1 2 0 0 1.08403 3.09034 -1.01693 3.86228 1.7768 0. 1
</event>
<event>
 4 80 1 -1 -1 -1
 11 -1 0 0 0 0 0 0 5 5 0 0. 9.
 -11 -1 0 0 0 0 0 0 -5 5 0 0. 9.
 15 1 1 2 0 0 0.993278 -3.95869 -2.27694 5 1.7768 0. -1
 -15 1 1 2 0 0 -0.993278 3.95869 2.27694 5 1.7768 0. 1
</event>
<event>
 4 80 1 -1 -1 -1
 11 -1 0 0 0 0 0 0 5 5 0 0. 9.
 -11 -1 0 0 0 0 0 0 -5 5 0 0. 9.
 15 1 1 2 0 0 3.95754 0.838359 -2.34037 5 1.7768 0. -1
 -15 1 1 2 0 0 -3.95754 -0.838359 2.34037 5 1.7768 0. 1
</event>
<event>
 4 80 1 -1 -1 -1
 11 -1 0 0 0 0 0 0 5 5 0 0. 9.
 -11 -1 0 0 0 0 0 0 -4.99983 4.99983 0 0. 9.
 15 1 1 2 0 0 1.35535 1.75386 -4.11433 4.99984 1.7768 0. -1
 -15 1 1 2 0 0 -1.35535 -1.75386 4.11451 4.99998 1.7768 0. 1
</event>
<event>
 4 80 1 -1 -1 -1
 11 -1 0 0 0 0 0 0 5 5 0 0. 9.
 -11 -1 0 0 0 0 0 0 -5 5 0 0. 9.
 15 1 1 2 0 0 3.68646 0.757776 -2.77093 5 1.7768 0. 1
 -15 1 1 2 0 0 -3.68646 -0.757776 2.77093 5 1.7768 0. -1
</event>
<event>
 4 80 1 -1 -1 -1
 11 -1 0 0 0 0 0 0 5 5 0 0. 9.
 -11 -1 0 0 0 0 0 0 -4.97934 4.97934 0 0. 9.
 15 1 1 2 0 0 4.22708 -1.21652 -1.53592 4.98647 1.7768 0. -1
 -15 1 1 2 0 0 -4.22708 1.21652 1.55658 4.99287 1.7768 0. 1
</event>
<event>
 4 80 1 -1 -1 -1
 11 -1 0 0 0 0 0 0 4.99973 4.99973 0 0. 9.
 -11 -1 0 0 0 0 0 0 -3.09539 3.09539 0 0. 9.
 15 1 1 2 0 0 -1.91453 2.01325 3.15881 4.56666 1.7768 0. 1
 -15 1 1 2 0 0 1.91453 -2.01325 -1.25447 3.52846 1.7768 0. -1
</event>
<event>
 4 80 1 -1 -1 -1
 11 -1 0 0 0 0 0 0 4.97521 4.97521 0 0. 9.
 -11 -1 0 0 0 0 0 0 -4.99829 4.99829 0 0. 9.
 15 1 1 2 0 0 -3.58585 2.27518 -1.92859 4.99119 1.7768 0. -1
 -15 1 1 2 0 0 3.58585 -2.27518 1.9055 4.98231 1.7768 0. 1
</event>
<event>
 4 80 1 -1 -1 -1
 11 -1 0 0 0 0 0 0 5 5 0 0. 9.
 -11 -1 0 0 0 0 0 0 -5 5 0 0. 9.
 15 1 1 2 0 0 -2.5967 0.641598 -3.83246 5 1.7768 0. -1
 -15 1 1 2 0 0 2.5967 -0.641598 3.83246 5 1.7768 0. 1
</event>
<event>
 4 80 1 -1 -1 -1
 11 -1 0 0 0 0 0 0 5 5 0 0. 9.
 -11 -1 0 0 0 0 0 0 -5 5 0 0. 9.
 15 1 1 2 0 0 -3.6113 -0.890939 -2.82966 5 1.7768 0. -1
 -15 1 1 2 0 0 3.6113 0.890939 2.82966 5 1.7768 0. 1
</event>
<event>
 4 80 1 -1 -1 -1
 11 -1 0 0 0 0 0 0 4.85383 4.85383 0 0. 9.
 -11 -1 0 0 0 0 0 0 -5 5 0 0. 9.
 15 1 1 2 0 0 -0.105897 2.05635 4.03487 4.86598 1.7768 0. -1
 -15 1 1 2 0 0 0.105897 -2.05635 -4.18104 4.98785 1.7768 0. 1
</event>
<event>
 4 80 1 -1 -1 -1
 11 -1 0 0 0 0 0 0 4.99999 4.99999 0 0. 9.
 -11 -1 0 0 0 0 0 0 -5 5 0 0. 9.
 15 1 1 2 0 0 -4.33172 0.191675 -1.74404 5 1.7768 0. -1
 -15 1 1 2 0 0 4.33172 -0.191675 1.74403 4.99999 1.7768 0. 1
</event>
<event>
 4 80 1 -1 -1 -1
 11 -1 0 0 0 0 0 0 0.9297 0.9297 0 0. 9.
 -11 -1 0 0 0 0 0 0 -5 5 0 0. 9.
 15 1 1 2 0 0 -0.91657 -0.0950999 -0.933641 2.20875 1.7768 0. 1
 -15 1 1 2 0 0 0.91657 0.0950999 -3.13666 3.72095 1.7768 0. -1
</event>
<event>
 4 80 1 -1 -1 -1
 11 -1 0 0 0 0 0 0 4.99927 4.99927 0 0. 9.
 -11 -1 0 0 0 0 0 0 -5 5 0 0. 9.
 15 1 1 2 0 0 3.40801 -2.35138 -2.16718 4.99979 1.7768 0. 1
 -15 1 1 2 0 0 -3.40801 2.35138 2.16645 4.99948 1.7768 0. -1
</event>
<event>
 4 80 1 -1 -1 -1
 11 -1 0 0 0 0 0 0 1.72226 1.72226 0 0. 9.
 -11 -1 0 0 0 0 0 0 -5 5 0 0. 9.
 15 1 1 2 0 0 -1.46329 -1.32175 -3.0719 4.05987 1.7768 0. 1
 -15 1 1 2 0 0 1.46329 1.32175 -0.205832 2.66239 1.7768 0. -1
</event>
<event>
 4 80 1 -1 -1 -1
 11 -1 0 0 0 0 0 0 5 5 0 0. 9.
 -11 -1 0 0 0 0 0 0 -5 5 0 0. 9.
 15 1 1 2 0 0 -2.50892 -3.16261 2.35488 5 1.7768 0. -1
 -15 1 1 2 0 0 2.50892 3.16261 -2.35488 5 1.7768 0. 1
</event>
<event>
 4 80 1 -1 -1 -1
 11 -1 0 0 0 0 0 0 5 5 0 0. 9.
 -11 -1 0 0 0 0 0 0 -4.93561 4.93561 0 0. 9.
 15 1 1 2 0 0 -0.838364 -3.47655 2.98709 4.98696 1.7768 0. 1
 -15 1 1 2 0 0 0.838364 3.47655 -2.92271 4.94866 1.7768 0. -1
</event>
<event>
 4 80 1 -1 -1 -1
 11 -1 0 0 0 0 0 0 5 5 0 0. 9.
 -11 -1 0 0 0 0 0 0 -5 5 0 0. 9.
 15 1 1 2 0 0 2.18632 -0.888089 4.03405 5 1.7768 0. 1
 -15 1 1 2 0 0 -2.18632 0.888089 -4.03405 5 1.7768 0. -1
</event>
<event>
 4 80 1 -1 -1 -1
 11 -1 0 0 0 0 0 0 4.98107 4.98107 0 0. 9.
 -11 -1 0 0 0 0 0 0 -2.98027 2.98027 0 0. 9.
 15 1 1 2 0 0 -0.00671944 0.804023 4.43334 4.84342 1.7768 0. 1
 -15 1 1 2 0 0 0.00671944 -0.804023 -2.43254 3.11793 1.7768 0. -1
</event>
<event>
 4 80 1 -1 -1 -1
 11 -1 0 0 0 0 0 0 5 5 0 0. 9.
 -11 -1 0 0 0 0 0 0 -5 5 0 0. 9.
 15 1 1 2 0 0 2.50586 3.65146 -1.49326 5 1.7768 0. 1
 -15 1 1 2 0 0 -2.50586 -3.65146 1.49326 5 1.7768 0. -1
</event>
<event>
 4 80 1 -1 -1 -1
 11 -1 0 0 0 0 0 0 5 5 0 0. 9.
 -11 -1 0 0 0 0 0 0 -4.99979 4.99979 0 0. 9.
 15 1 1 2 0 0 -1.23732 -3.36437 -2.99844 4.99983 1.7768 0. -1
 -15 1 1 2 0 0 1.23732 3.36437 2.99865 4.99996 1.7768 0. 1
</event>
<event>
 4 80 1 -1 -1 -1
 11 -1 0 0 0 0 0 0 2.37446 2.37446 0 0. 9.
 -11 -1 0 0 0 0 0 0 -3.98615 3.98615 0 0. 9.
 15 1 1 2 0 0 2.02011 -0.643998 -2.19722 3.53286 1.7768 0. -1
 -15 1 1 2 0 0 -2.02011 0.643998 0.58554 2.82775 1.7768 0. 1
</event>
<event>
 4 80 1 -1 -1 -1
 11 -1 0 0 0 0 0 0 4.99308 4.99308 0 0. 9.
 -11 -1 0 0 0 0 0 0 -4.93119 4.93119 0 0. 9.
 15 1 1 2 0 0 2.12833 -0.985029 4.02652 4.98705 1.7768 0. -1
 -15 1 1 2 0 0 -2.12833 0.985029 -3.96463 4.93721 1.7768 0. 1
</event>
<event>
 4 80 1 -1 -1 -1
 11 -1 0 0 0 0 0 0 5 5 0 0. 9.
 -11 -1 0 0 0 0 0 0 -4.48706 4.48706 0 0. 9.
 15 1 1 2 0 0 -0.302573 2.54532 -3.31349 4.55051 1.7768 0. -1
 -15 1 1 2 0 0 0.302573 -2.54532 3.82643 4.93655 1.7768 0. 1
</event>
<event>
 4 80 1 -1 -1 -1
 11 -1 0 0 0 0 0 0 5 5 0 0. 9.
 -11 -1 0 0 0 0 0 0 -4.98555 4.98555 0 0. 9.
 15 1 1 2 0 0 0.549141 0.149748 -4.62376 4.98607 1.7768 0. 1
 -15 1 1 2 0 0 -0.549141 -0.149748 4.63822 4.99948 1.7768 0. -1
</event>
<event>
 4 80 1 -1 -1 -1
 11 -1 0 0 0 0 0 0 5 5 0 0. 9.
 -11 -1 0 0 0 0 0 0 -5 5 0 0. 9.
 15 1 1 2 0 0 -1.37118 -4.19512 1.53724 5 1.7768 0. 1
 -15 1 1 2 0 0 1.37118 4.19512 -1.53724 5 1.7768 0. -1
</event>
<event>
 4 80 1 -1 -1 -1
 11 -1 0 0 0 0 0 0 5 5 0 0. 9.
 -11 -1 0 0 0 0 0 0 -3.78833 3.78833 0 0. 9.
 15 1 1 2 0 0 1.19046 -0.793967 4.34783 4.91008 1.7768 0. -1
 -15 1 1 2 0 0 -1.19046 0.793967 -3.13616 3.87825 1.7768 0. 1
</event>
<event>
 4 80 1 -1 -1 -1
 11 -1 0 0 0 0 0 0 5 5 0 0. 9.
 -11 -1 0 0 0 0 0 0 -5 5 0 0. 9.
 15 1 1 2 0 0 1.30263 1.96421 4.03575 5 1.7768 0. -1
 -15 1 1 2 0 0 -1.30263 -1.96421 -4.03575 5 1.7768 0. 1
</event>
<event>
 4 80 1 -1 -1 -1
 11 -1 0 0 0 0 0 0 4.86857 4.86857 0 0. 9.
 -11 -1 0 0 0 0 0 0 -5 5 0 0. 9.
 15 1 1 2 0 0 4.49732 0.280257 -1.00426 4.94679 1.7768 0. -1
 -15 1 1 2 0 0 -4.49732 -0.280257 0.872831 4.92179 1.7768 0. 1
</event>
<event>
 4 80 1 -1 -1 -1
 11 -1 0 0 0 0 0 0 4.99646 4.99646 0 0. 9.
 -11 -1 0 0 0 0 0 0 -5 5 0 0. 9.
 15 1 1 2 0 0 0.947803 0.509773 -4.5478 4.99984 1.7768 0. -1
 -15 1 1 2 0 0 -0.947803 -0.509773 4.54426 4.99662 1.7768 0. 1
</event>
<event>
 4 80 1 -1 -1 -1
 11 -1 0 0 0 0 0 0 5 5 0 0. 9.
 -11 -1 0 0 0 0 0 0 -4.99983 4.99983 0 0. 9.
 15 1 1 2 0 0 1.80951 -4.18095 -1.0424 4.9999 1.7768 0. 1
 -15 1 1 2 0 0 -1.80951 4.18095 1.04257 4.99993 1.7768 0. -1
</event>
<event>
 4 80 1 -1 -1 -1
 11 -1 0 0 0 0 0 0 4.99966 4.99966 0 0. 9.
 -11 -1 0 0 0 0 0 0 -4.99999 4.99999 0 0. 9.
 15 1 1 2 0 0 -4.24995 0.278057 -1.92399 4.99989 1.7768 0. 1
 -15 1 1 2 0 0 4.24995 -0.278057 1.92367 4.99977 1.7768 0. -1
</event>
<event>
 4 80 1 -1 -1 -1
 11 -1 0 0 0 0 0 0 5 5 0 0. 9.
 -11 -1 0 0 0 0 0 0 -4.97355 4.97355 0 0. 9.
 15 1 1 2 0 0 -3.77748 -2.45176 -1.18241 4.98361 1.7768 0. -1
 -15 1 1 2 0 0 3.77748 2.45176 1.20885 4.98995 1.7768 0. 1
</event>
<event>
 4 80 1 -1 -1 -1
 11 -1 0 0 0 0 0 0 2.83188 2.83188 0 0. 9.
 -11 -1 0 0 0 0 0 0 -5 5 0 0. 9.
 15 1 1 2 0 0 1.30983 -0.939406 -4.10085 4.75109 1.7768 0. 1
 -15 1 1 2 0 0 -1.30983 0.939406 1.93273 3.0808 1.7768 0. -1
</event>
<event>
 4 80 1 -1 -1 -1
 11 -1 0 0 0 0 0 0 5 5 0 0. 9.
 -11 -1 0 0 0 0 0 0 -5 5 0 0. 9.
 15 1 1 2 0 0 -1.4225 -0.901543 -4.35958 5 1.7768 0. -1
 -15 1 1 2 0 0 1.4225 0.901543 4.35958 5 1.7768 0. 1
</event>
<event>
 4 80 1 -1 -1 -1
 11 -1 0 0 0 0 0 0 5 5 0 0. 9.
 -11 -1 0 0 0 0 0 0 -1.33602 1.33602 0 0. 9.
 15 1 1 2 0 0 0.647042 1.28561 0.355567 2.31422 1.7768 0. 1
 -15 1 1 2 0 0 -0.647042 -1.28561 3.30842 4.02179 1.7768 0. -1
</event>
<event>
 4 80 1 -1 -1 -1
 11 -1 0 0 0 0 0 0 3.68061 3.68061 0 0. 9.
 -11 -1 0 0 0 0 0 0 -4.99471 4.99471 0 0. 9.
 15 1 1 2 0 0 -3.37192 1.76531 0.213027 4.20586 1.7768 0. -1
 -15 1 1 2 0 0 3.37192 -1.76531 -1.52713 4.46946 1.7768 0. 1
</event>
<event>
 4 80 1 -1 -1 -1
 11 -1 0 0 0 0 0 0 5 5 0 0. 9.
 -11 -1 0 0 0 0 0 0 -5 5 0 0. 9.
 15 1 1 2 0 0 -2.82226 3.23961 -1.83903 5 1.7768 0. -1
 -15 1 1 2 0 0 2.82226 -3.23961 1.83903 5 1.7768 0. 1
</event>
<event>
 4 80 1 -1 -1 -1
 11 -1 0 0 0 0 0 0 5 5 0 0. 9.
 -11 -1 0 0 0 0 0 0 -4.76305 4.76305 0 0. 9.
 15 1 1 2 0 0 -3.10151 2.37994 2.43734 4.9378 1.7768 0. -1
 -15 1 1 2 0 0 3.10151 -2.37994 -2.20039 4.82524 1.7768 0. 1
</event>
<event>
 4 80 1 -1 -1 -1
 11 -1 0 0 0 0 0 0 5 5 0 0. 9.
 -11 -1 0 0 0 0 0 0 -5 5 0 0. 9.
 15 1 1 2 0 0 -1.93724 -2.68501 -3.2985 5 1.7768 0. 1
 -15 1 1 2 0 0 1.93724 2.68501 3.2985 5 1.7768 0. -1
</event>
<event>
 4 80 1 -1 -1 -1
 11 -1 0 0 0 0 0 0 4.96053 4.96053 0 0. 9.
 -11 -1 0 0 0 0 0 0 -5 5 0 0. 9.
 15 1 1 2 0 0 4.15854 -1.6548 1.25035 4.97523 1.7768 0. -1
 -15 1 1 2 0 0 -4.15854 1.6548 -1.28982 4.98529 1.7768 0. 1
</event>
<event>
 4 80 1 -1 -1 -1
 11 -1 0 0 0 0 0 0 5 5 0 0. 9.
 -11 -1 0 0 0 0 0 0 -5 5 0 0. 9.
 15 1 1 2 0 0 -0.13905 3.73218 2.80958 5 1.7768 0. 1
 -15 1 1 2 0 0 0.13905 -3.73218 -2.80958 5 1.7768 0. -1
</event>
<event>
 4 80 1 -1 -1 -1
 11 -1 0 0 0 0 0 0 5 5 0 0. 9.
 -11 -1 0 0 0 0 0 0 -4.99989 4.99989 0 0. 9.
 15 1 1 2 0 0 -3.70129 -1.02425 2.66334 4.99997 1.7768 0. 1
 -15 1 1 2 0 0 3.70129 1.02425 -2.66323 4.99991 1.7768 0. -1
</event>
<event>
 4 80 1 -1 -1 -1
 11 -1 0 0 0 0 0 0 4.99998 4.99998 0 0. 9.
 -11 -1 0 0 0 0 0 0 -5 5 0 0. 9.
 15 1 1 2 0 0 4.38841 -1.59244 0.219455 4.99999 1.7768 0. 1
 -15 1 1 2 0 0 -4.38841 1.59244 -0.219473 4.99999 1.7768 0. -1
</event>
<event>
 4 80 1 -1 -1 -1
 11 -1 0 0 0 0 0 0 5 5 0 0. 9.
 -11 -1 0 0 0 0 0 0 -5 5 0 0. 9.
 15 1 1 2 0 0 -3.28494 -0.264988 3.3138 5 1.7768 0. -1
 -15 1 1 2 0 0 3.28494 0.264988 -3.3138 5 1.7768 0. 1
</event>
<event>
 4 80 1 -1 -1 -1
 11 -1 0 0 0 0 0 0 5 5 0 0. 9.
 -11 -1 0 0 0 0 0 0 -5 5 0 0. 9.
 15 1 1 2 0 0 -4.11446 0.529967 -2.15235 5 1.7768 0. 1
 -15 1 1 2 0 0 4.11446 -0.529967 2.15235 5 1.7768 0. -1
</event>
<event>
 4 80 1 -1 -1 -1
 11 -1 0 0 0 0 0 0 5 5 0 0. 9.
 -11 -1 0 0 0 0 0 0 -5 5 0 0. 9.
 15 1 1 2 0 0 -4.37279 1.43318 -0.816696 5 1.7768 0. 1
 -15 1 1 2 0 0 4.37279 -1.43318 0.816694 5 1.7768 0. -1
</event>
<event>
 4 80 1 -1 -1 -1
 11 -1 0 0 0 0 0 0 4.60666 4.60666 0 0. 9.
 -11 -1 0 0 0 0 0 0 -5 5 0 0. 9.
 15 1 1 2 0 0 -2.23573 3.06884 -2.53514 4.89908 1.7768 0. -1
 -15 1 1 2 0 0 2.23573 -3.06884 2.1418 4.70758 1.7768 0. 1
</event>
<event>
 4 80 1 -1 -1 -1
 11 -1 0 0 0 0 0 0 4.99978 4.99978 0 0. 9.
 -11 -1 0 0 0 0 0 0 -5 5 0 0. 9.
 15 1 1 2 0 0 1.41221 1.44738 -4.21341 4.99998 1.7768 0. 1
 -15 1 1 2 0 0 -1.41221 -1.44738 4.21319 4.9998 1.7768 0. -1
</event>
<event>
 4 80 1 -1 -1 -1
 11 -1 0 0 0 0 0 0 5 5 0 0. 9.
 -11 -1 0 0 0 0 0 0 -4.77516 4.77516 0 0. 9.
 15 1 1 2 0 0 4.46932 -0.74887 -0.314859 4.87775 1.7768 0. -1
 -15 1 1 2 0 0 -4.46932 0.74887 0.539702 4.89741 1.7768 0. 1
</event>
<event>
 4 80 1 -1 -1 -1
 11 -1 0 0 0 0 0 0 4.77815 4.77815 0 0. 9.
 -11 -1 0 0 0 0 0 0 -4.99744 4.99744 0 0. 9.
 15 1 1 2 0 0 -1.59769 -3.6483 2.09502 4.83834 1.7768 0. -1
 -15 1 1 2 0 0 1.59769 3.6483 -2.31431 4.93725 1.7768 0. 1
</event>
<event>
 4 80 1 -1 -1 -1
 11 -1 0 0 0 0 0 0 5 5 0 0. 9.
 -11 -1 0 0 0 0 0 0 -4.99972 4.99972 0 0. 9.
 15 1 1 2 0 0 4.63655 -0.415828 -0.41262 4.99985 1.7768 0. -1
 -15 1 1 2 0 0 -4.63655 0.415828 0.412897 4.99987 1.7768 0. 1
</event>
<event>
 4 80 1 -1 -1 -1
 11 -1 0 0 0 0 0 0 5 5 0 0. 9.
 -11 -1 0 0 0 0 0 0 -5 5 0 0. 9.
 15 1 1 2 0 0 -0.39261 -0.639915 4.61288 5 1.7768 0. -1
 -15 1 1 2 0 0 0.39261 0.639915 -4.61288 5 1.7768 0. 1
</event>
<event>
 4 80 1 -1 -1 -1
 11 -1 0 0 0 0 0 0 4.99986 4.99986 0 0. 9.
 -11 -1 0 0 0 0 0 0 -5 5 0 0. 9.
 15 1 1 2 0 0 -0.913954 3.27486 -3.20656 4.99997 1.7768 0. 1
 -15 1 1 2 0 0 0.913954 -3.27486 3.20642 4.99988 1.7768 0. -1
</event>
<event>
 4 80 1 -1 -1 -1
 11 -1 0 0 0 0 0 0 4.99993 4.99993 0 0. 9.
 -11 -1 0 0 0 0 0 0 -5 5 0 0. 9.
 15 1 1 2 0 0 0.916119 1.89974 -4.1706 4.99999 1.7768 0. -1
 -15 1 1 2 0 0 -0.916119 -1.89974 4.17053 4.99993 1.7768 0. 1
</event>
<event>
 4 80 1 -1 -1 -1
 11 -1 0 0 0 0 0 0 5 5 0 0. 9.
 -11 -1 0 0 0 0 0 0 -4.95607 4.95607 0 0. 9.
 15 1 1 2 0 0 -2.20532 -0.744889 4.04747 4.9958 1.7768 0. -1
 -15 1 1 2 0 0 2.20532 0.744889 -4.00354 4.96028 1.7768 0. 1
</event>
<event>
 4 80 1 -1 -1 -1
 11 -1 0 0 0 0 0 0 5 5 0 0. 9.
 -11 -1 0 0 0 0 0 0 -4.74214 4.74214 0 0. 9.
 15 1 1 2 0 0 -4.19912 -0.806082 -1.37844 4.83117 1.7768 0. -1
 -15 1 1 2 0 0 4.19912 0.806082 1.6363 4.91097 1.7768 0. 1
</event>
<event>
 4 80 1 -1 -1 -1
 11 -1 0 0 0 0 0 0 5 5 0 0. 9.
 -11 -1 0 0 0 0 0 0 -3.70364 3.70364 0 0. 9.
 15 1 1 2 0 0 -1.43334 0.459011 4.30775 4.89689 1.7768 0. -1
 -15 1 1 2 0 0 1.43334 -0.459011 -3.01139 3.80675 1.7768 0. 1
</event>
<event>
 4 80 1 -1 -1 -1
 11 -1 0 0 0 0 0 0 5 5 0 0. 9.
 -11 -1 0 0 0 0 0 0 -5 5 0 0. 9.
 15 1 1 2 0 0 -2.31697 -0.501456 -4.02771 5 1.7768 0. -1
 -15 1 1 2 0 0 2.31697 0.501456 4.02771 5 1.7768 0. 1
</event>
<event>
 4 80 1 -1 -1 -1
 11 -1 0 0 0 0 0 0 4.7201 4.7201 0 0. 9.
 -11 -1 0 0 0 0 0 0 -5 5 0 0. 9.
 15 1 1 2 0 0 -2.32183 3.02918 -2.565 4.92988 1.7768 0. -1
 -15 1 1 2 0 0 2.32183 -3.02918 2.2851 4.79022 1.7768 0. 1
</event>
<event>
 4 80 1 -1 -1 -1
 11 -1 0 0 0 0 0 0 5 5 0 0. 9.
 -11 -1 0 0 0 0 0 0 -5 5 0 0. 9.
 15 1 1 2 0 0 3.02729 -2.90182 -2.0633 5 1.7768 0. -1
 -15 1 1 2 0 0 -3.02729 2.90182 2.0633 5 1.7768 0. 1
</event>
<event>
 4 80 1 -1 -1 -1
 11 -1 0 0 0 0 0 0 4.99713 4.99713 0 0. 9.
 -11 -1 0 0 0 0 0 0 -5 5 0 0. 9.
 15 1 1 2 0 0 2.94341 3.55784 0.709932 4.99836 1.7768 0. -1
 -15 1 1 2 0 0 -2.94341 -3.55784 -0.712804 4.99877 1.7768 0. 1
</event>
<event>
 4 80 1 -1 -1 -1
 11 -1 0 0 0 0 0 0 5 5 0 0. 9.
 -11 -1 0 0 0 0 0 0 -4.95982 4.95982 0 0. 9.
 15 1 1 2 0 0 -3.53615 -0.340784 -2.9834 4.96779 1.7768 0. -1
 -15 1 1 2 0 0 3.53615 0.340784 3.02359 4.99203 1.7768 0. 1
</event>
<event>
 4 80 1 -1 -1 -1
 11 -1 0 0 0 0 0 0 4.99993 4.99993 0 0. 9.
 -11 -1 0 0 0 0 0 0 -1.47876 1.47876 0 0. 9.
 15 1 1 2 0 0 -1.00128 -1.66268 2.57636 3.68272 1.7768 0. -1
 -15 1 1 2 0 0 1.00128 1.66268 0.944803 2.79597 1.7768 0. 1
</event>
<event>
 4 80 1 -1 -1 -1
 11 -1 0 0 0 0 0 0 1.11425 1.11425 0 0. 9.
 -11 -1 0 0 0 0 0 0 -3.69489 3.69489 0 0. 9.
 15 1 1 2 0 0 0.412829 0.512678 -0.430796 1.94334 1.7768 0. 1
 -15 1 1 2 0 0 -0.412829 -0.512678 -2.14984 2.8658 1.7768 0. -1
</event>
<event>
 4 80 1 -1 -1 -1
 11 -1 0 0 0 0 0 0 4.99955 4.99955 0 0. 9.
 -11 -1 0 0 0 0 0 0 -5 5 0 0. 9.
 15 1 1 2 0 0 -0.319553 -1.26262 4.48795 4.99957 1.7768 0. 1
 -15 1 1 2 0 0 0.319553 1.26262 -4.4884 4.99998 1.7768 0. -1
</event>
<event>
 4 80 1 -1 -1 -1
 11 -1 0 0 0 0 0 0 0.730208 0.730208 0 0. 9.
 -11 -1 0 0 0 0 0 0 -4.99997 4.99997 0 0. 9.
 15 1 1 2 0 0 0.587229 0.0998553 -2.69287 3.28086 1.7768 0. 1
 -15 1 1 2 0 0 -0.587229 -0.0998553 -1.5769 2.44931 1.7768 0. -1
</event>
<event>
 4 80 1 -1 -1 -1
 11 -1 0 0 0 0 0 0 5 5 0 0. 9.
 -11 -1 0 0 0 0 0 0 -4.92091 4.92091 0 0. 9.
 15 1 1 2 0 0 -2.99408 1.12705 -3.30901 4.93376 1.7768 0. -1
 -15 1 1 2 0 0 2.99408 -1.12705 3.3881 4.98715 1.7768 0. 1
</event>
<event>
 4 80 1 -1 -1 -1
 11 -1 0 0 0 0 0 0 5 5 0 0. 9.
 -11 -1 0 0 0 0 0 0 -5 5 0 0. 9.
 15 1 1 2 0 0 4.57023 0.92863 0.304805 5 1.7768 0. 1
 -15 1 1 2 0 0 -4.57023 -0.92863 -0.304805 5 1.7768 0. -1
</event>
<event>
 4 80 1 -1 -1 -1
 11 -1 0 0 0 0 0 0 4.99988 4.99988 0 0. 9.
 -11 -1 0 0 0 0 0 0 -4.96526 4.96526 0 0. 9.
 15 1 1 2 0 0 1.69284 -0.417548 4.33334 4.99756 1.7768 0. 1
 -15 1 1 2 0 0 -1.69284 0.417548 -4.29872 4.96758 1.7768 0. -1
</event>
<event>
 4 80 1 -1 -1 -1
 11 -1 0 0 0 0 0 0 4.99611 4.99611 0 0. 9.
 -11 -1 0 0 0 0 0 0 -5 5 0 0. 9.
 15 1 1 2 0 0 -1.32059 4.3213 1.18347 4.99759 1.7768 0. 1
 -15 1 1 2 0 0 1.32059 -4.3213 -1.18736 4.99852 1.7768 0. -1
</event>
<event>
 4 80 1 -1 -1 -1
 11 -1 0 0 0 0 0 0 4.99926 4.99926 0 0. 9.
 -11 -1 0 0 0 0 0 0 -4.99947 4.99947 0 0. 9.
 15 1 1 2 0 0 2.79321 2.43403 2.84759 4.9993 1.7768 0. -1
 -15 1 1 2 0 0 -2.79321 -2.43403 -2.84781 4.99943 1.7768 0. 1
</event>
<event>
 4 80 1 -1 -1 -1
 11 -1 0 0 0 0 0 0 2.32077 2.32077 0 0. 9.
 -11 -1 0 0 0 0 0 0 -4.99854 4.99854 0 0. 9.
 15 1 1 2 0 0 2.72059 -1.0135 -1.46583 3.7061 1.7768 0. 1
 -15 1 1 2 0 0 -2.72059 1.0135 -1.21193 3.61321 1.7768 0. -1
</event>
<event>
 4 80 1 -1 -1 -1
 11 -1 0 0 0 0 0 0 4.96408 4.96408 0 0. 9.
 -11 -1 0 0 0 0 0 0 -5 5 0 0. 9.
 15 1 1 2 0 0 -2.15085 -4.03114 0.86885 4.97884 1.7768 0. 1
 -15 1 1 2 0 0 2.15085 4.03114 -0.904769 4.98524 1.7768 0. -1
</event>
<event>
 4 80 1 -1 -1 -1
 11 -1 0 0 0 0 0 0 4.99992 4.99992 0 0. 9.
 -11 -1 0 0 0 0 0 0 -4.99988 4.99988 0 0. 9.
 15 1 1 2 0 0 4.27428 0.602697 1.79127 4.99991 1.7768 0. 1
 -15 1 1 2 0 0 -4.27428 -0.602697 -1.79123 4.99989 1.7768 0. -1
</event>
<event>
 4 80 1 -1 -1 -1
 11 -1 0 0 0 0 0 0 5 5 0 0. 9.
 -11 -1 0 0 0 0 0 0 -5 5 0 0. 9.
 15 1 1 2 0 0 -3.6113 -0.883216 -2.83208 5 1.7768 0. 1
 -15 1 1 2 0 0 3.6113 0.883216 2.83208 5 1.7768 0. -1
</event>
<event>
 4 80 1 -1 -1 -1
 11 -1 0 0 0 0 0 0 5 5 0 0. 9.
 -11 -1 0 0 0 0 0 0 -5 5 0 0. 9.
 15 1 1 2 0 0 -1.55877 4.3171 -0.880418 5 1.7768 0. -1
 -15 1 1 2 0 0 1.55877 -4.3171 0.880418 5 1.7768 0. 1
</event>
<event>
 4 80 1 -1 -1 -1
 11 -1 0 0 0 0 0 0 5 5 0 0. 9.
 -11 -1 0 0 0 0 0 0 -5 5 0 0. 9.
 15 1 1 2 0 0 0.475491 -2.03278 4.18139 5 1.7768 0. 1
 -15 1 1 2 0 0 -0.475491 2.03278 -4.18139 5 1.7768 0. -1
</event>
<event>
 4 80 1 -1 -1 -1
 11 -1 0 0 0 0 0 0 5 5 0 0. 9.
 -11 -1 0 0 0 0 0 0 -5 5 0 0. 9.
 15 1 1 2 0 0 -3.06568 2.52837 2.45992 5 1.7768 0. 1
 -15 1 1 2 0 0 3.06568 -2.52837 -2.45992 5 1.7768 0. -1
</event>
<event>
 4 80 1 -1 -1 -1
 11 -1 0 0 0 0 0 0 4.98021 4.98021 0 0. 9.
 -11 -1 0 0 0 0 0 0 -4.99998 4.99998 0 0. 9.
 15 1 1 2 0 0 2.78112 0.907279 -3.64107 4.99729 1.7768 0. 1
 -15 1 1 2 0 0 -2.78112 -0.907279 3.6213 4.98291 1.7768 0. -1
</event>
<event>
 4 80 1 -1 -1 -1
 11 -1 0 0 0 0 0 0 5 5 0 0. 9.
 -11 -1 0 0 0 0 0 0 -5 5 0 0. 9.
 15 1 1 2 0 0 -0.56159 2.04555 4.16445 5 1.7768 0. -1
 -15 1 1 2 0 0 0.56159 -2.04555 -4.16445 5 1.7768 0. 1
</event>
<event>
 4 80 1 -1 -1 -1
 11 -1 0 0 0 0 0 0 5 5 0 0. 9.
 -11 -1 0 0 0 0 0 0 -4.39656 4.39656 0 0. 9.
 15 1 1 2 0 0 -0.53015 -2.11889 4.05838 4.93953 1.7768 0. 1
 -15 1 1 2 0 0 0.53015 2.11889 -3.45494 4.45703 1.7768 0. -1
</event>
<event>
 4 80 1 -1 -1 -1
 11 -1 0 0 0 0 0 0 4.99961 4.99961 0 0. 9.
 -11 -1 0 0 0 0 0 0 -4.99703 4.99703 0 0. 9.
 15 1 1 2 0 0 0.464311 -3.55644 -2.99231 4.99755 1.7768 0. 1
 -15 1 1 2 0 0 -0.464311 3.55644 2.99488 4.99909 1.7768 0. -1
</event>
<event>
 4 80 1 -1 -1 -1
 11 -1 0 0 0 0 0 0 4.83554 4.83554 0 0. 9.
 -11 -1 0 0 0 0 0 0 -4.99991 4.99991 0 0. 9.
 15 1 1 2 0 0 -1.97737 -0.0598097 4.05433 4.8486 1.7768 0. 1
 -15 1 1 2 0 0 1.97737 0.0598097 -4.2187 4.98685 1.7768 0. -1
</event>
<event>
 4 80 1 -1 -1 -1
 11 -1 0 0 0 0 0 0 4.99837 4.99837 0 0. 9.
 -11 -1 0 0 0 0 0 0 -5 5 0 0. 9.
 15 1 1 2 0 0 0.28011 -0.552683 4.63062 4.99843 1.7768 0. -1
 -15 1 1 2 0 0 -0.28011 0.552683 -4.63225 4.99994 1.7768 0. 1
</event>
<event>
 4 80 1 -1 -1 -1
 11 -1 0 0 0 0 0 0 5 5 0 0. 9.
 -11 -1 0 0 0 0 0 0 -2.83807 2.83807 0 0. 9.
 15 1 1 2 0 0 0.064551 -1.06211 -2.19251 3.01613 1.7768 0. 1
 -15 1 1 2 0 0 -0.064551 1.06211 4.35444 4.82194 1.7768 0. -1
</event>
<event>
 4 80 1 -1 -1 -1
 11 -1 0 0 0 0 0 0 5 5 0 0. 9.
 -11 -1 0 0 0 0 0 0 -2.14472 2.14472 0 0. 9.
 15 1 1 2 0 0 -1.47189 -0.370759 -1.07477 2.57231 1.7768 0. -1
 -15 1 1 2 0 0 1.47189 0.370759 3.93005 4.57241 1.7768 0. 1
</event>
<event>
 4 80 1 -1 -1 -1
 11 -1 0 0 0 0 0 0 2.28869 2.28869 0 0. 9.
 -11 -1 0 0 0 0 0 0 -4.99466 4.99466 0 0. 9.
 15 1 1 2 0 0 0.838891 2.26616 0.32751 3.01732 1.7768 0. -1
 -15 1 1 2 0 0 -0.838891 -2.26616 -3.03349 4.26603 1.7768 0. 1
</event>
<event>
 4 80 1 -1 -1 -1
 11 -1 0 0 0 0 0 0 5 5 0 0. 9.
 -11 -1 0 0 0 0 0 0 -5 5 0 0. 9.
 15 1 1 2 0 0 3.72827 -0.76168 2.71333 5 1.7768 0. -1
 -15 1 1 2 0 0 -3.72827 0.76168 -2.71333 5 1.7768 0. 1
</event>
<event>
 4 80 1 -1 -1 -1
 11 -1 0 0 0 0 0 0 5 5 0 0. 9.
 -11 -1 0 0 0 0 0 0 -5 5 0 0. 9.
 15 1 1 2 0 0 0.378019 4.40976 1.50113 5 1.7768 0. 1
 -15 1 1 2 0 0 -0.378019 -4.40976 -1.50114 5 1.7768 0. -1
</event>
<event>
 4 80 1 -1 -1 -1
 11 -1 0 0 0 0 0 0 4.99966 4.99966 0 0. 9.
 -11 -1 0 0 0 0 0 0 -4.99919 4.99919 0 0. 9.
 15 1 1 2 0 0 -4.64505 -0.470452 -0.196309 4.99941 1.7768 0. -1
 -15 1 1 2 0 0 4.64505 0.470452 0.19678 4.99943 1.7768 0. 1
</event>
<event>
 4 80 1 -1 -1 -1
 11 -1 0 0 0 0 0 0 4.99778 4.99778 0 0. 9.
 -11 -1 0 0 0 0 0 0 -4.55817 4.55817 0 0. 9.
 15 1 1 2 0 0 -2.17817 -2.54081 3.12509 4.91163 1.7768 0. -1
 -15 1 1 2 0 0 2.17817 2.54081 -2.68549 4.64432 1.7768 0. 1
</event>
<event>
 4 80 1 -1 -1 -1
 11 -1 0 0 0 0 0 0 5 5 0 0. 9.
 -11 -1 0 0 0 0 0 0 -5 5 0 0. 9.
 15 1 1 2 0 0 -2.5232 3.73845 1.22463 5 1.7768 0. 1
 -15 1 1 2 0 0 2.5232 -3.73845 -1.22463 5 1.7768 0. -1
</event>
<event>
 4 80 1 -1 -1 -1
 11 -1 0 0 0 0 0 0 5 5 0 0. 9.
 -11 -1 0 0 0 0 0 0 -5 5 0 0. 9.
 15 1 1 2 0 0 1.87812 3.0651 2.98665 5 1.7768 0. 1
 -15 1 1 2 0 0 -1.87812 -3.0651 -2.98665 5 1.7768 0. -1
</event>
<event>
 4 80 1 -1 -1 -1
 11 -1 0 0 0 0 0 0 4.99999 4.99999 0 0. 9.
 -11 -1 0 0 0 0 0 0 -5 5 0 0. 9.
 15 1 1 2 0 0 3.90524 2.55491 0.252514 4.99999 1.7768 0. -1
 -15 1 1 2 0 0 -3.90524 -2.55491 -0.252528 4.99999 1.7768 0. 1
</event>
<event>
 4 80 1 -1 -1 -1
 11 -1 0 0 0 0 0 0 5 5 0 0. 9.
 -11 -1 0 0 0 0 0 0 -4.99398 4.99398 0 0. 9.
 15 1 1 2 0 0 3.99268 2.42173 -0.0741347 4.99695 1.7768 0. -1
 -15 1 1 2 0 0 -3.99268 -2.42173 0.0801502 4.99704 1.7768 0. 1
</event>
<event>
 4 80 1 -1 -1 -1
 11 -1 0 0 0 0 0 0 4.91227 4.91227 0 0. 9.
 -11 -1 0 0 0 0 0 0 -4.99273 4.99273 0 0. 9.
 15 1 1 2 0 0 4.126 2.03965 -0.46902 4.95598 1.7768 0. -1
 -15 1 1 2 0 0 -4.126 -2.03965 0.388563 4.94901 1.7768 0. 1
</event>
<event>
 4 80 1 -1 -1 -1
 11 -1 0 0 0 0 0 0 5 5 0 0. 9.
 -11 -1 0 0 0 0 0 0 -5 5 0 0. 9.
 15 1 1 2 0 0 -4.64261 0.190515 -0.502112 5 1.7768 0. 1
 -15 1 1 2 0 0 4.64261 -0.190515 0.502112 5 1.7768 0. -1
</event>
<event>
 4 80 1 -1 -1 -1
 11 -1 0 0 0 0 0 0 5 5 0 0. 9.
 -11 -1 0 0 0 0 0 0 -5 5 0 0. 9.
 15 1 1 2 0 0 -0.715243 4.33892 -1.58255 5 1.7768 0. 1
 -15 1 1 2 0 0 0.715243 -4.33892 1.58255 5 1.7768 0. -1
</event>
<event>
 4 80 1 -1 -1 -1
 11 -1 0 0 0 0 0 0 5 5 0 0. 9.
 -11 -1 0 0 0 0 0 0 -1.51893 1.51893 0 0. 9.
 15 1 1 2 0 0 0.0170707 -2.04067 2.35769 3.58902 1.7768 0. 1
 -15 1 1 2 0 0 -0.0170707 2.04067 1.12338 2.92991 1.7768 0. -1
</event>
<event>
 4 80 1 -1 -1 -1
 11 -1 0 0 0 0 0 0 5 5 0 0. 9.
 -11 -1 0 0 0 0 0 0 -4.99946 4.99946 0 0. 9.
 15 1 1 2 0 0 4.29423 -0.397692 1.80055 4.99983 1.7768 0. 1
 -15 1 1 2 0 0 -4.29423 0.397692 -1.8 4.99963 1.7768 0. -1
</event>
<event>
 4 80 1 -1 -1 -1
 11 -1 0 0 0 0 0 0 5 5 0 0. 9.
 -11 -1 0 0 0 0 0 0 -5 5 0 0. 9.
 15 1 1 2 0 0 0.28143 1.50343 -4.41619 5 1.7768 0. 1
 -15 1 1 2 0 0 -0.28143 -1.50343 4.41619 5 1.7768 0. -1
</event>
<event>
 4 80 1 -1 -1 -1
 11 -1 0 0 0 0 0 0 5 5 0 0. 9.
 -11 -1 0 0 0 0 0 0 -5 5 0 0. 9.
 15 1 1 2 0 0 3.48177 1.10844 -2.91392 5 1.7768 0. 1
 -15 1 1 2 0 0 -3.48177 -1.10844 2.91392 5 1.7768 0. -1
</event>
<event>
 4 80 1 -1 -1 -1
 11 -1 0 0 0 0 0 0 5 5 0 0. 9.
 -11 -1 0 0 0 0 0 0 -5 5 0 0. 9.
 15 1 1 2 0 0 -0.51838 0.0456188 -4.64451 5 1.7768 0. 1
 -15 1 1 2 0 0 0.51838 -0.0456188 4.64451 5 1.7768 0. -1
</event>
<event>
 4 80 1 -1 -1 -1
 11 -1 0 0 0 0 0 0 4.99877 4.99877 0 0. 9.
 -11 -1 0 0 0 0 0 0 -4.99428 4.99428 0 0. 9.
 15 1 1 2 0 0 -0.0123135 0.0301387 -4.6675 4.99443 1.7768 0. 1
 -15 1 1 2 0 0 0.0123135 -0.0301387 4.67198 4.99862 1.7768 0. -1
</event>
<event>
 4 80 1 -1 -1 -1
 11 -1 0 0 0 0 0 0 4.99979 4.99979 0 0. 9.
 -11 -1 0 0 0 0 0 0 -4.99999 4.99999 0 0. 9.
 15 1 1 2 0 0 0.367588 -0.849091 -4.58105 4.99998 1.7768 0. -1
 -15 1 1 2 0 0 -0.367588 0.849091 4.58085 4.9998 1.7768 0. 1
</event>
<event>
 4 80 1 -1 -1 -1
 11 -1 0 0 0 0 0 0 4.82513 4.82513 0 0. 9.
 -11 -1 0 0 0 0 0 0 -5 5 0 0. 9.
 15 1 1 2 0 0 -2.00819 4.09626 -0.482214 4.91959 1.7768 0. -1
 -15 1 1 2 0 0 2.00819 -4.09626 0.307349 4.90554 1.7768 0. 1
</event>
<event>
 4 80 1 -1 -1 -1
 11 -1 0 0 0 0 0 0 5 5 0 0. 9.
 -11 -1 0 0 0 0 0 0 -4.99998 4.99998 0 0. 9.
 15 1 1 2 0 0 -4.46354 -0.712879 1.18778 4.99999 1.7768 0. 1
 -15 1 1 2 0 0 4.46354 0.712879 -1.18776 4.99999 1.7768 0. -1
</event>
<event>
 4 80 1 -1 -1 -1
 11 -1 0 0 0 0 0 0 5 5 0 0. 9.
 -11 -1 0 0 0 0 0 0 -5 5 0 0. 9.
 15 1 1 2 0 0 -0.778838 1.43758 -4.37825 5 1.7768 0. -1
 -15 1 1 2 0 0 0.778838 -1.43758 4.37825 5 1.7768 0. 1
</event>
<event>
 4 80 1 -1 -1 -1
 11 -1 0 0 0 0 0 0 4.50376 4.50376 0 0. 9.
 -11 -1 0 0 0 0 0 0 -4.99981 4.99981 0 0. 9.
 15 1 1 2 0 0 1.38263 1.30062 -4.22295 4.95926 1.7768 0. -1
 -15 1 1 2 0 0 -1.38263 -1.30062 3.72689 4.54431 1.7768 0. 1
</event>
<event>
 4 80 1 -1 -1 -1
 11 -1 0 0 0 0 0 0 5 5 0 0. 9.
 -11 -1 0 0 0 0 0 0 -4.86154 4.86154 0 0. 9.
 15 1 1 2 0 0 -3.75475 1.55412 -2.08425 4.90054 1.7768 0. -1
 -15 1 1 2 0 0 3.75475 -1.55412 2.2227 4.96101 1.7768 0. 1
</event>
<event>
 4 80 1 -1 -1 -1
 11 -1 0 0 0 0 0 0 4.99999 4.99999 0 0. 9.
 -11 -1 0 0 0 0 0 0 -5 5 0 0. 9.
 15 1 1 2 0 0 4.14294 -1.90523 1.02391 4.99999 1.7768 0. 1
 -15 1 1 2 0 0 -4.14294 1.90523 -1.02392 5 1.7768 0. -1
</event>
<event>
 4 80 1 -1 -1 -1
 11 -1 0 0 0 0 0 0 5 5 0 0. 9.
 -11 -1 0 0 0 0 0 0 -5 5 0 0. 9.
 15 1 1 2 0 0 -4.52055 -0.575388 -1.03723 5 1.7768 0. -1
 -15 1 1 2 0 0 4.52055 0.575388 1.03723 5 1.7768 0. 1
</event>
<event>
 4 80 1 -1 -1 -1
 11 -1 0 0 0 0 0 0 5 5 0 0. 9.
 -11 -1 0 0 0 0 0 0 -4.99964 4.99964 0 0. 9.
 15 1 1 2 0 0 3.02752 -2.54118 -2.49322 4.99973 1.7768 0. 1
 -15 1 1 2 0 0 -3.02752 2.54118 2.49358 4.99991 1.7768 0. -1
</event>
<event>
 4 80 1 -1 -1 -1
 11 -1 0 0 0 0 0 0 5 5 0 0. 9.
 -11 -1 0 0 0 0 0 0 -5 5 0 0. 9.
 15 1 1 2 0 0 -3.79595 -2.67204 0.541515 5 1.7768 0. -1
 -15 1 1 2 0 0 3.79595 2.67204 -0.541515 5 1.7768 0. 1
</event>
<event>
 4 80 1 -1 -1 -1
 11 -1 0 0 0 0 0 0 5 5 0 0. 9.
 -11 -1 0 0 0 0 0 0 -4.98418 4.98418 0 0. 9.
 15 1 1 2 0 0 2.21982 3.38821 -2.3063 4.98842 1.7768 0. 1
 -15 1 1 2 0 0 -2.21982 -3.38821 2.32213 4.99576 1.7768 0. -1
</event>
<event>
 4 80 1 -1 -1 -1
 11 -1 0 0 0 0 0 0 5 5 0 0. 9.
 -11 -1 0 0 0 0 0 0 -4.9904 4.9904 0 0. 9.
 15 1 1 2 0 0 -1.96561 -0.644302 4.18996 4.99922 1.7768 0. -1
 -15 1 1 2 0 0 1.96561 0.644302 -4.18036 4.99118 1.7768 0. 1
</event>
<event>
 4 80 1 -1 -1 -1
 11 -1 0 0 0 0 0 0 4.74164 4.74164 0 0. 9.
 -11 -1 0 0 0 0 0 0 -5 5 0 0. 9.
 15 1 1 2 0 0 -3.26903 -0.960744 -3.12036 4.95015 1.7768 0. -1
 -15 1 1 2 0 0 3.26903 0.960744 2.862 4.79149 1.7768 0. 1
</event>
<event>
 4 80 1 -1 -1 -1
 11 -1 0 0 0 0 0 0 0.718069 0.718069 0 0. 9.
 -11 -1 0 0 0 0 0 0 -4.98197 4.98197 0 0. 9.
 15 1 1 2 0 0 0.0322046 -0.275363 -1.24971 2.19006 1.7768 0. 1
 -15 1 1 2 0 0 -0.0322046 0.275363 -3.01419 3.50998 1.7768 0. -1
</event>
<event>
 4 80 1 -1 -1 -1
 11 -1 0 0 0 0 0 0 4.93505 4.93505 0 0. 9.
 -11 -1 0 0 0 0 0 0 -4.99888 4.99888 0 0. 9.
 15 1 1 2 0 0 2.40235 -2.11618 -3.38795 4.98853 1.7768 0. -1
 -15 1 1 2 0 0 -2.40235 2.11618 3.32412 4.9454 1.7768 0. 1
</event>
<event>
 4 80 1 -1 -1 -1
 11 -1 0 0 0 0 0 0 4.97023 4.97023 0 0. 9.
 -11 -1 0 0 0 0 0 0 -5 5 0 0. 9.
 15 1 1 2 0 0 -0.811849 2.61437 -3.78311 4.99637 1.7768 0. 1
 -15 1 1 2 0 0 0.811849 -2.61437 3.75334 4.97386 1.7768 0. -1
</event>
<event>
 4 80 1 -1 -1 -1
 11 -1 0 0 0 0 0 0 4.88003 4.88003 0 0. 9.
 -11 -1 0 0 0 0 0 0 -2.38454 2.38454 0 0. 9.
 15 1 1 2 0 0 -0.284749 -1.40723 -1.44968 2.70568 1.7768 0. 1
 -15 1 1 2 0 0 0.284749 1.40723 3.94517 4.55889 1.7768 0. -1
</event>
<event>
 4 80 1 -1 -1 -1
 11 -1 0 0 0 0 0 0 5 5 0 0. 9.
 -11 -1 0 0 0 0 0 0 -4.99899 4.99899 0 0. 9.
 15 1 1 2 0 0 1.22438 -1.77789 4.14505 4.99991 1.7768 0. -1
 -15 1 1 2 0 0 -1.22438 1.77789 -4.14404 4.99908 1.7768 0. 1
</event>
<event>
 4 80 1 -1 -1 -1
 11 -1 0 0 0 0 0 0 4.84714 4.84714 0 0. 9.
 -11 -1 0 0 0 0 0 0 -4.29625 4.29625 0 0. 9.
 15 1 1 2 0 0 -1.40655 0.849144 -3.60037 4.33818 1.7768 0. -1
 -15 1 1 2 0 0 1.40655 -0.849144 4.15125 4.80521 1.7768 0. 1
</event>
<event>
 4 80 1 -1 -1 -1
 11 -1 0 0 0 0 0 0 5 5 0 0. 9.
 -11 -1 0 0 0 0 0 0 -5 5 0 0. 9.
 15 1 1 2 0 0 -0.851931 -2.21635 -4.02546 5 1.7768 0. 1
 -15 1 1 2 0 0 0.851931 2.21635 4.02546 5 1.7768 0. -1
</event>
<event>
 4 80 1 -1 -1 -1
 11 -1 0 0 0 0 0 0 4.67055 4.67055 0 0. 9.
 -11 -1 0 0 0 0 0 0 -5 5 0 0. 9.
 15 1 1 2 0 0 -2.28356 3.30475 -2.1806 4.90395 1.7768 0. 1
 -15 1 1 2 0 0 2.28356 -3.30475 1.85115 4.7666 1.7768 0. -1
</event>
<event>
 4 80 1 -1 -1 -1
 11 -1 0 0 0 0 0 0 5 5 0 0. 9.
 -11 -1 0 0 0 0 0 0 -5 5 0 0. 9.
 15 1 1 2 0 0 -2.85138 -0.158151 3.69958 5 1.7768 0. 1
 -15 1 1 2 0 0 2.85138 0.158151 -3.69958 5 1.7768 0. -1
</event>
<event>
 4 80 1 -1 -1 -1
 11 -1 0 0 0 0 0 0 4.9971 4.9971 0 0. 9.
 -11 -1 0 0 0 0 0 0 -5 5 0 0. 9.
 15 1 1 2 0 0 -2.94283 -1.28909 -3.39346 4.99953 1.7768 0. -1
 -15 1 1 2 0 0 2.94283 1.28909 3.39056 4.99757 1.7768 0. 1
</event>
<event>
 4 80 1 -1 -1 -1
 11 -1 0 0 0 0 0 0 4.9934 4.9934 0 0. 9.
 -11 -1 0 0 0 0 0 0 -1.06534 1.06534 0 0. 9.
 15 1 1 2 0 0 0.179582 0.356113 3.82285 4.2345 1.7768 0. -1
 -15 1 1 2 0 0 -0.179582 -0.356113 0.105203 1.82424 1.7768 0. 1
</event>
<event>
 4 80 1 -1 -1 -1
 11 -1 0 0 0 0 0 0 4.90582 4.90582 0 0. 9.
 -11 -1 0 0 0 0 0 0 -4.99994 4.99994 0 0. 9.
 15 1 1 2 0 0 -4.17296 -1.52245 1.23348 4.94071 1.7768 0. 1
 -15 1 1 2 0 0 4.17296 1.52245 -1.32759 4.96505 1.7768 0. -1
</event>
<event>
 4 80 1 -1 -1 -1
 11 -1 0 0 0 0 0 0 4.99997 4.99997 0 0. 9.
 -11 -1 0 0 0 0 0 0 -5 5 0 0. 9.
 15 1 1 2 0 0 0.411261 2.49379 -3.93117 5 1.7768 0. -1
 -15 1 1 2 0 0 -0.411261 -2.49379 3.93115 4.99998 1.7768 0. 1
</event>
<event>
 4 80 1 -1 -1 -1
 11 -1 0 0 0 0 0 0 5 5 0 0. 9.
 -11 -1 0 0 0 0 0 0 -4.50112 4.50112 0 0. 9.
 15 1 1 2 0 0 1.63436 -2.48976 3.49086 4.92076 1.7768 0. -1
 -15 1 1 2 0 0 -1.63436 2.48976 -2.99198 4.58036 1.7768 0. 1
</event>
<event>
 4 80 1 -1 -1 -1
 11 -1 0 0 0 0 0 0 4.99988 4.99988 0 0. 9.
 -11 -1 0 0 0 0 0 0 -4.98666 4.98666 0 0. 9.
 15 1 1 2 0 0 1.37149 -0.0878256 4.46601 4.99917 1.7768 0. 1
 -15 1 1 2 0 0 -1.37149 0.0878256 -4.4528 4.98737 1.7768 0. -1
</event>
<event>
 4 80 1 -1 -1 -1
 11 -1 0 0 0 0 0 0 4.99998 4.99998 0 0. 9.
 -11 -1 0 0 0 0 0 0 -5 5 0 0. 9.
 15 1 1 2 0 0 -2.42816 3.81268 1.18728 4.99999 1.7768 0. 1
 -15 1 1 2 0 0 2.42816 -3.81268 -1.1873 4.99999 1.7768 0. -1
</event>
<event>
 4 80 1 -1 -1 -1
 11 -1 0 0 0 0 0 0 4.99276 4.99276 0 0. 9.
 -11 -1 0 0 0 0 0 0 -5 5 0 0. 9.
 15 1 1 2 0 0 0.699057 -0.337516 -4.60834 4.99971 1.7768 0. 1
 -15 1 1 2 0 0 -0.699057 0.337516 4.60111 4.99304 1.7768 0. -1
</event>
<event>
 4 80 1 -1 -1 -1
 11 -1 0 0 0 0 0 0 5 5 0 0. 9.
 -11 -1 0 0 0 0 0 0 -1.38189 1.38189 0 0. 9.
 15 1 1 2 0 0 1.12383 0.93643 0.26787 2.31719 1.7768 0. -1
 -15 1 1 2 0 0 -1.12383 -0.93643 3.35024 4.0647 1.7768 0. 1
</event>
<event>
 4 80 1 -1 -1 -1
 11 -1 0 0 0 0 0 0 0.671501 0.671501 0 0. 9.
 -11 -1 0 0 0 0 0 0 -4.99958 4.99958 0 0. 9.
 15 1 1 2 0 0 -0.20481 -0.338769 -1.84394 2.59124 1.7768 0. -1
 -15 1 1 2 0 0 0.20481 0.338769 -2.48415 3.07984 1.7768 0. 1
</event>
<event>
 4 80 1 -1 -1 -1
 11 -1 0 0 0 0 0 0 5 5 0 0. 9.
 -11 -1 0 0 0 0 0 0 -4.96834 4.96834 0 0. 9.
 15 1 1 2 0 0 2.47074 3.67151 -1.43311 4.97957 1.7768 0. -1
 -15 1 1 2 0 0 -2.47074 -3.67151 1.46477 4.98877 1.7768 0. 1
</event>
<event>
 4 80 1 -1 -1 -1
 11 -1 0 0 0 0 0 0 4.99509 4.99509 0 0. 9.
 -11 -1 0 0 0 0 0 0 -4.9906 4.9906 0 0. 9.
 15 1 1 2 0 0 -3.2097 -0.218502 3.38172 4.99436 1.7768 0. -1
 -15 1 1 2 0 0 3.2097 0.218502 -3.37723 4.99133 1.7768 0. 1
</event>
<event>
 4 80 1 -1 -1 -1
 11 -1 0 0 0 0 0 0 5 5 0 0. 9.
 -11 -1 0 0 0 0 0 0 -5 5 0 0. 9.
 15 1 1 2 0 0 0.834332 4.51522 -0.871195 5 1.7768 0. -1
 -15 1 1 2 0 0 -0.834332 -4.51522 0.871195 5 1.7768 0. 1
</event>
<event>
 4 80 1 -1 -1 -1
 11 -1 0 0 0 0 0 0 4.99957 4.99957 0 0. 9.
 -11 -1 0 0 0 0 0 0 -4.891 4.891 0 0. 9.
 15 1 1 2 0 0 3.29585 2.96086 -1.23648 4.93112 1.7768 0. 1
 -15 1 1 2 0 0 -3.29585 -2.96086 1.34504 4.95945 1.7768 0. -1
</event>
<event>
 4 80 1 -1 -1 -1
 11 -1 0 0 0 0 0 0 5 5 0 0. 9.
 -11 -1 0 0 0 0 0 0 -5 5 0 0. 9.
 15 1 1 2 0 0 -4.02086 0.641671 2.29417 5 1.7768 0. 1
 -15 1 1 2 0 0 4.02086 -0.641671 -2.29417 5 1.7768 0. -1
</event>
<event>
 4 80 1 -1 -1 -1
 11 -1 0 0 0 0 0 0 5 5 0 0. 9.
 -11 -1 0 0 0 0 0 0 -4.99957 4.99957 0 0. 9.
 15 1 1 2 0 0 3.52573 -2.78836 1.27865 4.99984 1.7768 0. 1
 -15 1 1 2 0 0 -3.52573 2.78836 -1.27821 4.99973 1.7768 0. -1
</event>
<event>
 4 80 1 -1 -1 -1
 11 -1 0 0 0 0 0 0 5 5 0 0. 9.
 -11 -1 0 0 0 0 0 0 -4.99982 4.99982 0 0. 9.
 15 1 1 2 0 0 -4.2312 1.15621 1.61301 4.99994 1.7768 0. -1
 -15 1 1 2 0 0 4.2312 -1.15621 -1.61283 4.99988 1.7768 0. 1
</event>
<event>
 4 80 1 -1 -1 -1
 11 -1 0 0 0 0 0 0 5 5 0 0. 9.
 -11 -1 0 0 0 0 0 0 -5 5 0 0. 9.
 15 1 1 2 0 0 0.681134 -0.888194 -4.53756 5 1.7768 0. -1
 -15 1 1 2 0 0 -0.681134 0.888194 4.53756 5 1.7768 0. 1
</event>
<event>
 4 80 1 -1 -1 -1
 11 -1 0 0 0 0 0 0 4.99988 4.99988 0 0. 9.
 -11 -1 0 0 0 0 0 0 -4.99952 4.99952 0 0. 9.
 15 1 1 2 0 0 -1.29666 4.19251 1.60666 4.99976 1.7768 0. -1
 -15 1 1 2 0 0 1.29666 -4.19251 -1.6063 4.99964 1.7768 0. 1
</event>
<event>
 4 80 1 -1 -1 -1
 11 -1 0 0 0 0 0 0 4.99972 4.99972 0 0. 9.
 -11 -1 0 0 0 0 0 0 -4.55754 4.55754 0 0. 9.
 15 1 1 2 0 0 -2.1255 -0.942239 -3.5543 4.60395 1.7768 0. -1
 -15 1 1 2 0 0 2.1255 0.942239 3.99649 4.9533 1.7768 0. 1
</event>
<event>
 4 80 1 -1 -1 -1
 11 -1 0 0 0 0 0 0 5 5 0 0. 9.
 -11 -1 0 0 0 0 0 0 -5 5 0 0. 9.
 15 1 1 2 0 0 -0.941185 3.00507 -3.45341 5 1.7768 0. 1
 -15 1 1 2 0 0 0.941185 -3.00507 3.45341 5 1.7768 0. -1
</event>
<event>
 4 80 1 -1 -1 -1
 11 -1 0 0 0 0 0 0 5 5 0 0. 9.
 -11 -1 0 0 0 0 0 0 -4.77364 4.77364 0 0. 9.
 15 1 1 2 0 0 2.0349 1.79481 -3.54134 4.80218 1.7768 0. 1
 -15 1 1 2 0 0 -2.0349 -1.79481 3.7677 4.97146 1.7768 0. -1
</event>
<event>
 4 80 1 -1 -1 -1
 11 -1 0 0 0 0 0 0 5 5 0 0. 9.
 -11 -1 0 0 0 0 0 0 -3.14011 3.14011 0 0. 9.
 15 1 1 2 0 0 0.193549 3.37744 2.00639 4.31601 1.7768 0. 1
 -15 1 1 2 0 0 -0.193549 -3.37744 -0.1465 3.8241 1.7768 0. -1
</event>
<event>
 4 80 1 -1 -1 -1
 11 -1 0 0 0 0 0 0 5 5 0 0. 9.
 -11 -1 0 0 0 0 0 0 -5 5 0 0. 9.
 15 1 1 2 0 0 1.66772 3.43438 -2.69556 5 1.7768 0. 1
 -15 1 1 2 0 0 -1.66772 -3.43438 2.69556 5 1.7768 0. -1
</event>
<event>
 4 80 1 -1 -1 -1
 11 -1 0 0 0 0 0 0 3.70715 3.70715 0 0. 9.
 -11 -1 0 0 0 0 0 0 -5 5 0 0. 9.
 15 1 1 2 0 0 -0.576802 0.931405 -4.45397 4.91893 1.7768 0. 1
 -15 1 1 2 0 0 0.576802 -0.931405 3.16113 3.78823 1.7768 0. -1
</event>
<event>
 4 80 1 -1 -1 -1
 11 -1 0 0 0 0 0 0 4.99997 4.99997 0 0. 9.
 -11 -1 0 0 0 0 0 0 -4.96852 4.96852 0 0. 9.
 15 1 1 2 0 0 2.01533 -2.34018 3.50096 4.99524 1.7768 0. 1
 -15 1 1 2 0 0 -2.01533 2.34018 -3.46951 4.97325 1.7768 0. -1
</event>
<event>
 4 80 1 -1 -1 -1
 11 -1 0 0 0 0 0 0 4.83559 4.83559 0 0. 9.
 -11 -1 0 0 0 0 0 0 -4.99996 4.99996 0 0. 9.
 15 1 1 2 0 0 3.07578 -1.55753 -3.1048 4.96829 1.7768 0. -1
 -15 1 1 2 0 0 -3.07578 1.55753 2.94044 4.86726 1.7768 0. 1
</event>
<event>
 4 80 1 -1 -1 -1
 11 -1 0 0 0 0 0 0 4.01835 4.01835 0 0. 9.
 -11 -1 0 0 0 0 0 0 -5 5 0 0. 9.
 15 1 1 2 0 0 -0.913022 -4.0068 -0.706449 4.53265 1.7768 0. 1
 -15 1 1 2 0 0 0.913022 4.0068 -0.2752 4.4857 1.7768 0. -1
</event>
<event>
 4 80 1 -1 -1 -1
 11 -1 0 0 0 0 0 0 5 5 0 0. 9.
 -11 -1 0 0 0 0 0 0 -5 5 0 0. 9.
 15 1 1 2 0 0 -0.619209 -0.213942 -4.62742 5 1.7768 0. -1
 -15 1 1 2 0 0 0.619209 0.213942 4.62743 5 1.7768 0. 1
</event>
<event>
 4 80 1 -1 -1 -1
 11 -1 0 0 0 0 0 0 4.99685 4.99685 0 0. 9.
 -11 -1 0 0 0 0 0 0 -4.45169 4.45169 0 0. 9.
 15 1 1 2 0 0 1.93517 1.07136 -3.50121 4.50654 1.7768 0. 1
 -15 1 1 2 0 0 -1.93517 -1.07136 4.04637 4.94201 1.7768 0. -1
</event>
<event>
 4 80 1 -1 -1 -1
 11 -1 0 0 0 0 0 0 0.788814 0.788814 0 0. 9.
 -11 -1 0 0 0 0 0 0 -4.14967 4.14967 0 0. 9.
 15 1 1 2 0 0 0.207642 -0.204804 -1.9189 2.63153 1.7768 0. -1
 -15 1 1 2 0 0 -0.207642 0.204804 -1.44196 2.30695 1.7768 0. 1
</event>
<event>
 4 80 1 -1 -1 -1
 11 -1 0 0 0 0 0 0 3.75567 3.75567 0 0. 9.
 -11 -1 0 0 0 0 0 0 -5 5 0 0. 9.
 15 1 1 2 0 0 -1.02477 -3.7488 -1.34855 4.48106 1.7768 0. 1
 -15 1 1 2 0 0 1.02477 3.7488 0.104221 4.2746 1.7768 0. -1
</event>
<event>
 4 80 1 -1 -1 -1
 11 -1 0 0 0 0 0 0 5 5 0 0. 9.
 -11 -1 0 0 0 0 0 0 -4.99948 4.99948 0 0. 9.
 15 1 1 2 0 0 2.11967 0.351534 4.15033 4.99996 1.7768 0. -1
 -15 1 1 2 0 0 -2.11967 -0.351534 -4.14981 4.99952 1.7768 0. 1
</event>
<event>
 4 80 1 -1 -1 -1
 11 -1 0 0 0 0 0 0 5 5 0 0. 9.
 -11 -1 0 0 0 0 0 0 -5 5 0 0. 9.
 15 1 1 2 0 0 -4.04053 -2.06611 -1.11694 5 1.7768 0. 1
 -15 1 1 2 0 0 4.04053 2.06611 1.11694 5 1.7768 0. -1
</event>
<event>
 4 80 1 -1 -1 -1
 11 -1 0 0 0 0 0 0 5 5 0 0. 9.
 -11 -1 0 0 0 0 0 0 -5 5 0 0. 9.
 15 1 1 2 0 0 3.3589 0.410966 -3.22353 5 1.7768 0. 1
 -15 1 1 2 0 0 -3.3589 -0.410966 3.22353 5 1.7768 0. -1
</event>
<event>
 4 80 1 -1 -1 -1
 11 -1 0 0 0 0 0 0 5 5 0 0. 9.
 -11 -1 0 0 0 0 0 0 -4.99983 4.99983 0 0. 9.
 15 1 1 2 0 0 3.74055 2.76663 -0.442045 4.99991 1.7768 0. -1
 -15 1 1 2 0 0 -3.74055 -2.76663 0.442213 4.99992 1.7768 0. 1
</event>
<event>
 4 80 1 -1 -1 -1
 11 -1 0 0 0 0 0 0 5 5 0 0. 9.
 -11 -1 0 0 0 0 0 0 -5 5 0 0. 9.
 15 1 1 2 0 0 1.97529 1.24929 4.04719 5 1.7768 0. -1
 -15 1 1 2 0 0 -1.97529 -1.24929 -4.04719 5 1.7768 0. 1
</event>
<event>
 4 80 1 -1 -1 -1
 11 -1 0 0 0 0 0 0 5 5 0 0. 9.
 -11 -1 0 0 0 0 0 0 -4.94879 4.94879 0 0. 9.
 15 1 1 2 0 0 -1.57387 3.81966 2.15151 4.98534 1.7768 0. 1
 -15 1 1 2 0 0 1.57387 -3.81966 -2.10029 4.96345 1.7768 0. -1
</event>
<event>
 4 80 1 -1 -1 -1
 11 -1 0 0 0 0 0 0 4.99839 4.99839 0 0. 9.
 -11 -1 0 0 0 0 0 0 -5 5 0 0. 9.
 15 1 1 2 0 0 4.15461 -0.645379 -2.03966 4.99952 1.7768 0. -1
 -15 1 1 2 0 0 -4.15461 0.645379 2.03805 4.99887 1.7768 0. 1
</event>
<event>
 4 80 1 -1 -1 -1
 11 -1 0 0 0 0 0 0 4.14552 4.14552 0 0. 9.
 -11 -1 0 0 0 0 0 0 -4.18198 4.18198 0 0. 9.
 15 1 1 2 0 0 2.51442 2.78507 0.297754 4.16237 1.7768 0. -1
 -15 1 1 2 0 0 -2.51442 -2.78507 -0.334208 4.16513 1.7768 0. 1
</event>
<event>
 4 80 1 -1 -1 -1
 11 -1 0 0 0 0 0 0 4.9387 4.9387 0 0. 9.
 -11 -1 0 0 0 0 0 0 -5 5 0 0. 9.
 15 1 1 2 0 0 3.19136 -0.120972 -3.39766 4.99012 1.7768 0. -1
 -15 1 1 2 0 0 -3.19136 0.120972 3.33636 4.94858 1.7768 0. 1
</event>
<event>
 4 80 1 -1 -1 -1
 11 -1 0 0 0 0 0 0 4.8857 4.8857 0 0. 9.
 -11 -1 0 0 0 0 0 0 -4.99999 4.99999 0 0. 9.
 15 1 1 2 0 0 1.57078 2.75724 3.28987 4.90415 1.7768 0. 1
 -15 1 1 2 0 0 -1.57078 -2.75724 -3.40416 4.98154 1.7768 0. -1
</event>
<event>
 4 80 1 -1 -1 -1
 11 -1 0 0 0 0 0 0 4.97411 4.97411 0 0. 9.
 -11 -1 0 0 0 0 0 0 -5 5 0 0. 9.
 15 1 1 2 0 0 -0.83117 0.307841 4.5617 4.97518 1.7768 0. 1
 -15 1 1 2 0 0 0.83117 -0.307841 -4.58759 4.99893 1.7768 0. -1
</event>
<event>
 4 80 1 -1 -1 -1
 11 -1 0 0 0 0 0 0 4.99996 4.99996 0 0. 9.
 -11 -1 0 0 0 0 0 0 -5 5 0 0. 9.
 15 1 1 2 0 0 -3.83761 1.48465 2.21598 4.99997 1.7768 0. -1
 -15 1 1 2 0 0 3.83761 -1.48465 -2.21602 4.99999 1.7768 0. 1
</event>
<event>
 4 80 1 -1 -1 -1
 11 -1 0 0 0 0 0 0 1.86271 1.86271 0 0. 9.
 -11 -1 0 0 0 0 0 0 -4.99932 4.99932 0 0. 9.
 15 1 1 2 0 0 0.606758 -1.10513 0.833953 2.33295 1.7768 0. -1
 -15 1 1 2 0 0 -0.606758 1.10513 -3.97056 4.52908 1.7768 0. 1
</event>
<event>
 4 80 1 -1 -1 -1
 11 -1 0 0 0 0 0 0 4.99998 4.99998 0 0. 9.
 -11 -1 0 0 0 0 0 0 -4.99999 4.99999 0 0. 9.
 15 1 1 2 0 0 -0.514054 1.01766 -4.53236 4.99999 1.7768 0. 1
 -15 1 1 2 0 0 0.514054 -1.01766 4.53235 4.99998 1.7768 0. -1
</event>
<event>
 4 80 1 -1 -1 -1
 11 -1 0 0 0 0 0 0 5 5 0 0. 9.
 -11 -1 0 0 0 0 0 0 -5 5 0 0. 9.
 15 1 1 2 0 0 0.277598 4.5804 0.886103 5 1.7768 0. 1
 -15 1 1 2 0 0 -0.277598 -4.5804 -0.886103 5 1.7768 0. -1
</event>
<event>
 4 80 1 -1 -1 -1
 11 -1 0 0 0 0 0 0 5 5 0 0. 9.
 -11 -1 0 0 0 0 0 0 -5 5 0 0. 9.
 15 1 1 2 0 0 -2.12953 -4.12265 -0.557774 5 1.7768 0. 1
 -15 1 1 2 0 0 2.12953 4.12265 0.557774 5 1.7768 0. -1
</event>
<event>
 4 80 1 -1 -1 -1
 11 -1 0 0 0 0 0 0 5 5 0 0. 9.
 -11 -1 0 0 0 0 0 0 -4.98963 4.98963 0 0. 9.
 15 1 1 2 0 0 0.625485 -1.16158 -4.47253 4.99017 1.7768 0. -1
 -15 1 1 2 0 0 -0.625485 1.16158 4.4829 4.99946 1.7768 0. 1
</event>
<event>
 4 80 1 -1 -1 -1
 11 -1 0 0 0 0 0 0 4.99952 4.99952 0 0. 9.
 -11 -1 0 0 0 0 0 0 -5 5 0 0. 9.
 15 1 1 2 0 0 4.30643 0.137516 -1.8101 4.99985 1.7768 0. 1
 -15 1 1 2 0 0 -4.30643 -0.137516 1.80962 4.99967 1.7768 0. -1
</event>
<event>
 4 80 1 -1 -1 -1
 11 -1 0 0 0 0 0 0 1.07276 1.07276 0 0. 9.
 -11 -1 0 0 0 0 0 0 -5 5 0 0. 9.
 15 1 1 2 0 0 -0.977241 0.112803 -3.42257 3.97988 1.7768 0. -1
 -15 1 1 2 0 0 0.977241 -0.112803 -0.504676 2.09288 1.7768 0. 1
</event>
<event>
 4 80 1 -1 -1 -1
 11 -1 0 0 0 0 0 0 5 5 0 0. 9.
 -11 -1 0 0 0 0 0 0 -5 5 0 0. 9.
 15 1 1 2 0 0 4.22116 -0.635542 1.90266 5 1.7768 0. 1
 -15 1 1 2 0 0 -4.22116 0.635542 -1.90266 5 1.7768 0. -1
</event>
<event>
 4 80 1 -1 -1 -1
 11 -1 0 0 0 0 0 0 5 5 0 0. 9.
 -11 -1 0 0 0 0 0 0 -4.71687 4.71687 0 0. 9.
 15 1 1 2 0 0 2.42383 -1.3516 3.71027 4.96242 1.7768 0. -1
 -15 1 1 2 0 0 -2.42383 1.3516 -3.42714 4.75445 1.7768 0. 1
</event>
<event>
 4 80 1 -1 -1 -1
 11 -1 0 0 0 0 0 0 5 5 0 0. 9.
 -11 -1 0 0 0 0 0 0 -4.97501 4.97501 0 0. 9.
 15 1 1 2 0 0 1.92287 -2.99803 -2.99279 4.97997 1.7768 0. 1
 -15 1 1 2 0 0 -1.92287 2.99803 3.01777 4.99503 1.7768 0. -1
</event>
<event>
 4 80 1 -1 -1 -1
 11 -1 0 0 0 0 0 0 5 5 0 0. 9.
 -11 -1 0 0 0 0 0 0 -5 5 0 0. 9.
 15 1 1 2 0 0 -1.95823 3.80991 1.86874 5 1.7768 0. -1
 -15 1 1 2 0 0 1.95823 -3.80991 -1.86874 5 1.7768 0. 1
</event>
<event>
 4 80 1 -1 -1 -1
 11 -1 0 0 0 0 0 0 4.69664 4.69664 0 0. 9.
 -11 -1 0 0 0 0 0 0 -4.99577 4.99577 0 0. 9.
 15 1 1 2 0 0 -2.03526 3.4336 1.94276 4.78163 1.7768 0. 1
 -15 1 1 2 0 0 2.03526 -3.4336 -2.24189 4.91078 1.7768 0. -1
</event>
<event>
 4 80 1 -1 -1 -1
 11 -1 0 0 0 0 0 0 4.95597 4.95597 0 0. 9.
 -11 -1 0 0 0 0 0 0 -5 5 0 0. 9.
 15 1 1 2 0 0 2.8302 0.635291 -3.6564 4.99406 1.7768 0. -1
 -15 1 1 2 0 0 -2.8302 -0.635291 3.61237 4.96191 1.7768 0. 1
</event>
<event>
 4 80 1 -1 -1 -1
 11 -1 0 0 0 0 0 0 4.99997 4.99997 0 0. 9.
 -11 -1 0 0 0 0 0 0 -5 5 0 0. 9.
 15 1 1 2 0 0 2.65273 -1.15846 3.6692 4.99998 1.7768 0. 1
 -15 1 1 2 0 0 -2.65273 1.15846 -3.66922 5 1.7768 0. -1
</event>
<event>
 4 80 1 -1 -1 -1
 11 -1 0 0 0 0 0 0 5 5 0 0. 9.
 -11 -1 0 0 0 0 0 0 -5 5 0 0. 9.
 15 1 1 2 0 0 -1.22592 1.30463 4.3171 5 1.7768 0. -1
 -15 1 1 2 0 0 1.22592 -1.30463 -4.3171 5 1.7768 0. 1
</event>
<event>
 4 80 1 -1 -1 -1
 11 -1 0 0 0 0 0 0 5 5 0 0. 9.
 -11 -1 0 0 0 0 0 0 -5 5 0 0. 9.
 15 1 1 2 0 0 -1.01109 -0.18288 -4.55922 5 1.7768 0. -1
 -15 1 1 2 0 0 1.01109 0.18288 4.55922 5 1.7768 0. 1
</event>
<event>
 4 80 1 -1 -1 -1
 11 -1 0 0 0 0 0 0 5 5 0 0. 9.
 -11 -1 0 0 0 0 0 0 -5 5 0 0. 9.
 15 1 1 2 0 0 -2.36371 0.0797723 -4.03098 5 1.7768 0. 1
 -15 1 1 2 0 0 2.36371 -0.0797723 4.03098 5 1.7768 0. -1
</event>
<event>
 4 80 1 -1 -1 -1
 11 -1 0 0 0 0 0 0 4.99991 4.99991 0 0. 9.
 -11 -1 0 0 0 0 0 0 -5 5 0 0. 9.
 15 1 1 2 0 0 2.49832 -3.23209 -2.27026 4.99998 1.7768 0. 1
 -15 1 1 2 0 0 -2.49832 3.23209 2.27017 4.99994 1.7768 0. -1
</event>
<event>
 4 80 1 -1 -1 -1
 11 -1 0 0 0 0 0 0 5 5 0 0. 9.
 -11 -1 0 0 0 0 0 0 -5 5 0 0. 9.
 15 1 1 2 0 0 3.63467 2.93389 -0.153994 5 1.7768 0. -1
 -15 1 1 2 0 0 -3.63467 -2.93389 0.153994 5 1.7768 0. 1
</event>
<event>
 4 80 1 -1 -1 -1
 11 -1 0 0 0 0 0 0 5 5 0 0. 9.
 -11 -1 0 0 0 0 0 0 -4.4008 4.4008 0 0. 9.
 15 1 1 2 0 0 -0.345477 -4.0981 1.69257 4.78919 1.7768 0. -1
 -15 1 1 2 0 0 0.345477 4.0981 -1.09338 4.61162 1.7768 0. 1
</event>
<event>
 4 80 1 -1 -1 -1
 11 -1 0 0 0 0 0 0 5 5 0 0. 9.
 -11 -1 0 0 0 0 0 0 -5 5 0 0. 9.
 15 1 1 2 0 0 -1.92869 -2.84355 3.16807 5 1.7768 0. -1
 -15 1 1 2 0 0 1.92869 2.84355 -3.16807 5 1.7768 0. 1
</event>
<event>
 4 80 1 -1 -1 -1
 11 -1 0 0 0 0 0 0 4.97617 4.97617 0 0. 9.
 -11 -1 0 0 0 0 0 0 -5 5 0 0. 9.
 15 1 1 2 0 0 1.46951 2.50525 3.63328 4.97938 1.7768 0. 1
 -15 1 1 2 0 0 -1.46951 -2.50525 -3.65711 4.99679 1.7768 0. -1
</event>
<event>
 4 80 1 -1 -1 -1
 11 -1 0 0 0 0 0 0 5 5 0 0. 9.
 -11 -1 0 0 0 0 0 0 -5 5 0 0. 9.
 15 1 1 2 0 0 1.33619 -2.04152 -3.98611 5 1.7768 0. 1
 -15 1 1 2 0 0 -1.33619 2.04152 3.98611 5 1.7768 0. -1
</event>
<event>
 4 80 1 -1 -1 -1
 11 -1 0 0 0 0 0 0 5 5 0 0. 9.
 -11 -1 0 0 0 0 0 0 -4.6322 4.6322 0 0. 9.
 15 1 1 2 0 0 3.61168 -2.51593 -0.609837 4.78579 1.7768 0. 1
 -15 1 1 2 0 0 -3.61168 2.51593 0.977642 4.84641 1.7768 0. -1
</event>
<event>
 4 80 1 -1 -1 -1
 11 -1 0 0 0 0 0 0 5 5 0 0. 9.
 -11 -1 0 0 0 0 0 0 -4.98501 4.98501 0 0. 9.
 15 1 1 2 0 0 2.86769 1.23587 -3.45896 4.9873 1.7768 0. 1
 -15 1 1 2 0 0 -2.86769 -1.23587 3.47395 4.99771 1.7768 0. -1
</event>
<event>
 4 80 1 -1 -1 -1
 11 -1 0 0 0 0 0 0 5 5 0 0. 9.
 -11 -1 0 0 0 0 0 0 -4.46073 4.46073 0 0. 9.
 15 1 1 2 0 0 -0.3191 3.32377 3.10207 4.89182 1.7768 0. -1
 -15 1 1 2 0 0 0.3191 -3.32377 -2.5628 4.56891 1.7768 0. 1
</event>
<event>
 4 80 1 -1 -1 -1
 11 -1 0 0 0 0 0 0 5 5 0 0. 9.
 -11 -1 0 0 0 0 0 0 -4.99998 4.99998 0 0. 9.
 15 1 1 2 0 0 -1.33054 -4.10637 1.79153 4.99999 1.7768 0. 1
 -15 1 1 2 0 0 1.33054 4.10637 -1.79151 4.99999 1.7768 0. -1
</event>
<event>
 4 80 1 -1 -1 -1
 11 -1 0 0 0 0 0 0 5 5 0 0. 9.
 -11 -1 0 0 0 0 0 0 -5 5 0 0. 9.
 15 1 1 2 0 0 -2.9077 -2.1211 -2.98135 5 1.7768 0. -1
 -15 1 1 2 0 0 2.9077 2.1211 2.98135 5 1.7768 0. 1
</event>
<event>
 4 80 1 -1 -1 -1
 11 -1 0 0 0 0 0 0 4.99996 4.99996 0 0. 9.
 -11 -1 0 0 0 0 0 0 -5 5 0 0. 9.
 15 1 1 2 0 0 -1.43662 2.68108 -3.54826 4.99999 1.7768 0. -1
 -15 1 1 2 0 0 1.43662 -2.68108 3.54823 4.99997 1.7768 0. 1
</event>
<event>
 4 80 1 -1 -1 -1
 11 -1 0 0 0 0 0 0 5 5 0 0. 9.
 -11 -1 0 0 0 0 0 0 -5 5 0 0. 9.
 15 1 1 2 0 0 0.441185 -2.33861 -4.02225 5 1.7768 0. 1
 -15 1 1 2 0 0 -0.441185 2.33861 4.02225 5 1.7768 0. -1
</event>
<event>
 4 80 1 -1 -1 -1
 11 -1 0 0 0 0 0 0 5 5 0 0. 9.
 -11 -1 0 0 0 0 0 0 -4.95775 4.95775 0 0. 9.
 15 1 1 2 0 0 -1.75327 -4.25907 -0.624909 4.97613 1.7768 0. 1
 -15 1 1 2 0 0 1.75327 4.25907 0.667164 4.98161 1.7768 0. -1
</event>
<event>
 4 80 1 -1 -1 -1
 11 -1 0 0 0 0 0 0 4.77177 4.77177 0 0. 9.
 -11 -1 0 0 0 0 0 0 -2.55696 2.55696 0 0. 9.
 15 1 1 2 0 0 0.0809801 1.37991 3.90914 4.51108 1.7768 0. 1
 -15 1 1 2 0 0 -0.0809801 -1.37991 -1.69433 2.81766 1.7768 0. -1
</event>
<event>
 4 80 1 -1 -1 -1
 11 -1 0 0 0 0 0 0 4.97892 4.97892 0 0. 9.
 -11 -1 0 0 0 0 0 0 -4.75218 4.75218 0 0. 9.
 15 1 1 2 0 0 0.37294 2.10396 -3.87986 4.7725 1.7768 0. 1
 -15 1 1 2 0 0 -0.37294 -2.10396 4.1066 4.9586 1.7768 0. -1
</event>
<event>
 4 80 1 -1 -1 -1
 11 -1 0 0 0 0 0 0 5 5 0 0. 9.
 -11 -1 0 0 0 0 0 0 -5 5 0 0. 9.
 15 1 1 2 0 0 -4.62557 -0.638086 -0.197938 5 1.7768 0. 1
 -15 1 1 2 0 0 4.62557 0.638086 0.197938 5 1.7768 0. -1
</event>
<event>
 4 80 1 -1 -1 -1
 11 -1 0 0 0 0 0 0 4.65951 4.65951 0 0. 9.
 -11 -1 0 0 0 0 0 0 -4.81882 4.81882 0 0. 9.
 15 1 1 2 0 0 2.00083 3.90603 0.107985 4.73601 1.7768 0. 1
 -15 1 1 2 0 0 -2.00083 -3.90603 -0.26729 4.74232 1.7768 0. -1
</event>
<event>
 4 80 1 -1 -1 -1
 11 -1 0 0 0 0 0 0 4.99997 4.99997 0 0. 9.
 -11 -1 0 0 0 0 0 0 -5 5 0 0. 9.
 15 1 1 2 0 0 -4.02981 -2.08727 1.11627 4.99998 1.7768 0. -1
 -15 1 1 2 0 0 4.02981 2.08727 -1.1163 4.99999 1.7768 0. 1
</event>
<event>
 4 80 1 -1 -1 -1
 11 -1 0 0 0 0 0 0 5 5 0 0. 9.
 -11 -1 0 0 0 0 0 0 -5 5 0 0. 9.
 15 1 1 2 0 0 2.64422 -0.322552 -3.84009 5 1.7768 0. -1
 -15 1 1 2 0 0 -2.64422 0.322552 3.84009 5 1.7768 0. 1
</event>
<event>
 4 80 1 -1 -1 -1
 11 -1 0 0 0 0 0 0 5 5 0 0. 9.
 -11 -1 0 0 0 0 0 0 -5 5 0 0. 9.
 15 1 1 2 0 0 -1.89873 3.32594 2.67866 5 1.7768 0. 1
 -15 1 1 2 0 0 1.89873 -3.32594 -2.67866 5 1.7768 0. -1
</event>
<event>
 4 80 1 -1 -1 -1
 11 -1 0 0 0 0 0 0 4.99327 4.99327 0 0. 9.
 -11 -1 0 0 0 0 0 0 -5 5 0 0. 9.
 15 1 1 2 0 0 1.86351 0.646171 -4.23638 4.99949 1.7768 0. 1
 -15 1 1 2 0 0 -1.86351 -0.646171 4.22965 4.99379 1.7768 0. -1
</event>
<event>
 4 80 1 -1 -1 -1
 11 -1 0 0 0 0 0 0 4.93283 4.93283 0 0. 9.
 -11 -1 0 0 0 0 0 0 -5 5 0 0. 9.
 15 1 1 2 0 0 -1.89285 2.63503 3.28012 4.94401 1.7768 0. -1
 -15 1 1 2 0 0 1.89285 -2.63503 -3.34729 4.98882 1.7768 0. 1
</event>
<event>
 4 80 1 -1 -1 -1
 11 -1 0 0 0 0 0 0 5 5 0 0. 9.
 -11 -1 0 0 0 0 0 0 -5 5 0 0. 9.
 15 1 1 2 0 0 4.28133 1.63758 0.911491 5 1.7768 0. 1
 -15 1 1 2 0 0 -4.28133 -1.63758 -0.911491 5 1.7768 0. -1
</event>
<event>
 4 80 1 -1 -1 -1
 11 -1 0 0 0 0 0 0 5 5 0 0. 9.
 -11 -1 0 0 0 0 0 0 -4.99531 4.99531 0 0. 9.
 15 1 1 2 0 0 -1.61798 -3.27391 2.91481 4.99902 1.7768 0. -1
 -15 1 1 2 0 0 1.61798 3.27391 -2.91013 4.99629 1.7768 0. 1
</event>
<event>
 4 80 1 -1 -1 -1
 11 -1 0 0 0 0 0 0 4.99949 4.99949 0 0. 9.
 -11 -1 0 0 0 0 0 0 -5 5 0 0. 9.
 15 1 1 2 0 0 0.33835 3.8924 2.56382 4.99962 1.7768 0. 1
 -15 1 1 2 0 0 -0.33835 -3.8924 -2.56433 4.99988 1.7768 0. -1
</event>
<event>
 4 80 1 -1 -1 -1
 11 -1 0 0 0 0 0 0 5 5 0 0. 9.
 -11 -1 0 0 0 0 0 0 -5 5 0 0. 9.
 15 1 1 2 0 0 0.670853 3.91083 -2.46934 5 1.7768 0. -1
 -15 1 1 2 0 0 -0.670853 -3.91083 2.46934 5 1.7768 0. 1
</event>
<event>
 4 80 1 -1 -1 -1
 11 -1 0 0 0 0 0 0 5 5 0 0. 9.
 -11 -1 0 0 0 0 0 0 -5 5 0 0. 9.
 15 1 1 2 0 0 -2.14925 0.270484 -4.14124 5 1.7768 0. -1
 -15 1 1 2 0 0 2.14925 -0.270484 4.14123 5 1.7768 0. 1
</event>
<event>
 4 80 1 -1 -1 -1
 11 -1 0 0 0 0 0 0 0.862932 0.862932 0 0. 9.
 -11 -1 0 0 0 0 0 0 -5 5 0 0. 9.
 15 1 1 2 0 0 -0.750064 0.229636 -1.02992 2.19859 1.7768 0. 1
 -15 1 1 2 0 0 0.750064 -0.229636 -3.10714 3.66434 1.7768 0. -1
</event>
<event>
 4 80 1 -1 -1 -1
 11 -1 0 0 0 0 0 0 5 5 0 0. 9.
 -11 -1 0 0 0 0 0 0 -5 5 0 0. 9.
 15 1 1 2 0 0 -0.92685 -0.0870205 -4.57991 5 1.7768 0. -1
 -15 1 1 2 0 0 0.92685 0.0870205 4.57992 5 1.7768 0. 1
</event>
<event>
 4 80 1 -1 -1 -1
 11 -1 0 0 0 0 0 0 5 5 0 0. 9.
 -11 -1 0 0 0 0 0 0 -5 5 0 0. 9.
 15 1 1 2 0 0 -0.836381 4.57986 0.409394 5 1.7768 0. 1
 -15 1 1 2 0 0 0.836381 -4.57986 -0.409394 5 1.7768 0. -1
</event>
<event>
 4 80 1 -1 -1 -1
 11 -1 0 0 0 0 0 0 4.99924 4.99924 0 0. 9.
 -11 -1 0 0 0 0 0 0 -5 5 0 0. 9.
 15 1 1 2 0 0 1.32771 -1.46236 4.23485 4.9993 1.7768 0. 1
 -15 1 1 2 0 0 -1.32771 1.46236 -4.23561 4.99994 1.7768 0. -1
</event>
<event>
 4 80 1 -1 -1 -1
 11 -1 0 0 0 0 0 0 5 5 0 0. 9.
 -11 -1 0 0 0 0 0 0 -5 5 0 0. 9.
 15 1 1 2 0 0 -2.78499 1.33102 3.5092 5 1.7768 0. 1
 -15 1 1 2 0 0 2.78499 -1.33102 -3.5092 5 1.7768 0. -1
</event>
<event>
 4 80 1 -1 -1 -1
 11 -1 0 0 0 0 0 0 4.98341 4.98341 0 0. 9.
 -11 -1 0 0 0 0 0 0 -1.96146 1.96146 0 0. 9.
 15 1 1 2 0 0 1.74406 1.86731 1.84122 3.61614 1.7768 0. 1
 -15 1 1 2 0 0 -1.74406 -1.86731 1.18073 3.32873 1.7768 0. -1
</event>
<event>
 4 80 1 -1 -1 -1
 11 -1 0 0 0 0 0 0 5 5 0 0. 9.
 -11 -1 0 0 0 0 0 0 -5 5 0 0. 9.
 15 1 1 2 0 0 -0.93368 -0.401946 -4.56168 5 1.7768 0. 1
 -15 1 1 2 0 0 0.93368 0.401946 4.56168 5 1.7768 0. -1
</event>
<event>
 4 80 1 -1 -1 -1
 11 -1 0 0 0 0 0 0 5 5 0 0. 9.
 -11 -1 0 0 0 0 0 0 -5 5 0 0. 9.
 15 1 1 2 0 0 3.64942 1.98363 -2.14224 5 1.7768 0. -1
 -15 1 1 2 0 0 -3.64942 -1.98363 2.14224 5 1.7768 0. 1
</event>
<event>
 4 80 1 -1 -1 -1
 11 -1 0 0 0 0 0 0 4.99954 4.99954 0 0. 9.
 -11 -1 0 0 0 0 0 0 -5 5 0 0. 9.
 15 1 1 2 0 0 -3.51762 0.552748 3.02645 4.99963 1.7768 0. 1
 -15 1 1 2 0 0 3.51762 -0.552748 -3.02691 4.99991 1.7768 0. -1
</event>
<event>
 4 80 1 -1 -1 -1
 11 -1 0 0 0 0 0 0 5 5 0 0. 9.
 -11 -1 0 0 0 0 0 0 -5 5 0 0. 9.
 15 1 1 2 0 0 -1.22638 2.10921 3.98616 5 1.7768 0. -1
 -15 1 1 2 0 0 1.22638 -2.10921 -3.98616 5 1.7768 0. 1
</event>
<event>
 4 80 1 -1 -1 -1
 11 -1 0 0 0 0 0 0 1.58881 1.58881 0 0. 9.
 -11 -1 0 0 0 0 0 0 -5 5 0 0. 9.
 15 1 1 2 0 0 0.241363 1.01798 -3.95141 4.45712 1.7768 0. -1
 -15 1 1 2 0 0 -0.241363 -1.01798 0.54022 2.13169 1.7768 0. 1
</event>
<event>
 4 80 1 -1 -1 -1
 11 -1 0 0 0 0 0 0 5 5 0 0. 9.
 -11 -1 0 0 0 0 0 0 -4.99935 4.99935 0 0. 9.
 15 1 1 2 0 0 -2.39455 3.99656 0.364516 4.9997 1.7768 0. 1
 -15 1 1 2 0 0 2.39455 -3.99656 -0.363865 4.99965 1.7768 0. -1
</event>
<event>
 4 80 1 -1 -1 -1
 11 -1 0 0 0 0 0 0 4.95423 4.95423 0 0. 9.
 -11 -1 0 0 0 0 0 0 -5 5 0 0. 9.
 15 1 1 2 0 0 -3.76868 -2.19413 -1.63418 4.98453 1.7768 0. 1
 -15 1 1 2 0 0 3.76868 2.19413 1.58842 4.96971 1.7768 0. -1
</event>
<event>
 4 80 1 -1 -1 -1
 11 -1 0 0 0 0 0 0 5 5 0 0. 9.
 -11 -1 0 0 0 0 0 0 -5 5 0 0. 9.
 15 1 1 2 0 0 -3.08619 -3.42148 0.781756 5 1.7768 0. 1
 -15 1 1 2 0 0 3.08619 3.42148 -0.781756 5 1.7768 0. -1
</event>
<event>
 4 80 1 -1 -1 -1
 11 -1 0 0 0 0 0 0 4.63995 4.63995 0 0. 9.
 -11 -1 0 0 0 0 0 0 -4.99968 4.99968 0 0. 9.
 15 1 1 2 0 0 3.24411 -3.08139 -0.0337525 4.81436 1.7768 0. 1
 -15 1 1 2 0 0 -3.24411 3.08139 -0.325973 4.82527 1.7768 0. -1
</event>
<event>
 4 80 1 -1 -1 -1
 11 -1 0 0 0 0 0 0 4.99995 4.99995 0 0. 9.
 -11 -1 0 0 0 0 0 0 -4.77546 4.77546 0 0. 9.
 15 1 1 2 0 0 -1.17135 -0.458588 4.48798 4.98819 1.7768 0. 1
 -15 1 1 2 0 0 1.17135 0.458588 -4.26349 4.78722 1.7768 0. -1
</event>
<event>
 4 80 1 -1 -1 -1
 11 -1 0 0 0 0 0 0 5 5 0 0. 9.
 -11 -1 0 0 0 0 0 0 -4.80692 4.80692 0 0. 9.
 15 1 1 2 0 0 0.115706 2.44322 3.95658 4.97946 1.7768 0. 1
 -15 1 1 2 0 0 -0.115706 -2.44322 -3.76351 4.82747 1.7768 0. -1
</event>
<event>
 4 80 1 -1 -1 -1
 11 -1 0 0 0 0 0 0 4.99971 4.99971 0 0. 9.
 -11 -1 0 0 0 0 0 0 -5 5 0 0. 9.
 15 1 1 2 0 0 1.65642 -1.68027 4.03393 4.99973 1.7768 0. -1
 -15 1 1 2 0 0 -1.65642 1.68027 -4.03422 4.99997 1.7768 0. 1
</event>
<event>
 4 80 1 -1 -1 -1
 11 -1 0 0 0 0 0 0 3.3146 3.3146 0 0. 9.
 -11 -1 0 0 0 0 0 0 -5 5 0 0. 9.
 15 1 1 2 0 0 3.15241 1.10661 -2.37553 4.46801 1.7768 0. -1
 -15 1 1 2 0 0 -3.15241 -1.10661 0.690131 3.84659 1.7768 0. 1
</event>
<event>
 4 80 1 -1 -1 -1
 11 -1 0 0 0 0 0 0 4.45205 4.45205 0 0. 9.
 -11 -1 0 0 0 0 0 0 -5 5 0 0. 9.
 15 1 1 2 0 0 0.0497316 2.89325 -3.55503 4.91623 1.7768 0. 1
 -15 1 1 2 0 0 -0.0497316 -2.89325 3.00707 4.53581 1.7768 0. -1
</event>
<event>
 4 80 1 -1 -1 -1
 11 -1 0 0 0 0 0 0 5 5 0 0. 9.
 -11 -1 0 0 0 0 0 0 -5 5 0 0. 9.
 15 1 1 2 0 0 -1.10608 1.13436 -4.39682 5 1.7768 0. -1
 -15 1 1 2 0 0 1.10608 -1.13436 4.39682 5 1.7768 0. 1
</event>
<event>
 4 80 1 -1 -1 -1
 11 -1 0 0 0 0 0 0 5 5 0 0. 9.
 -11 -1 0 0 0 0 0 0 -4.99998 4.99998 0 0. 9.
 15 1 1 2 0 0 -2.12622 -4.14661 0.356315 4.99999 1.7768 0. -1
 -15 1 1 2 0 0 2.12622 4.14661 -0.35629 4.99999 1.7768 0. 1
</event>
<event>
 4 80 1 -1 -1 -1
 11 -1 0 0 0 0 0 0 5 5 0 0. 9.
 -11 -1 0 0 0 0 0 0 -5 5 0 0. 9.
 15 1 1 2 0 0 -0.762268 0.579814 4.57439 5 1.7768 0. 1
 -15 1 1 2 0 0 0.762268 -0.579814 -4.57439 5 1.7768 0. -1
</event>
<event>
 4 80 1 -1 -1 -1
 11 -1 0 0 0 0 0 0 4.99997 4.99997 0 0. 9.
 -11 -1 0 0 0 0 0 0 -5 5 0 0. 9.
 15 1 1 2 0 0 -1.48037 4.06888 -1.75922 4.99999 1.7768 0. 1
 -15 1 1 2 0 0 1.48037 -4.06888 1.7592 4.99998 1.7768 0. -1
</event>
<event>
 4 80 1 -1 -1 -1
 11 -1 0 0 0 0 0 0 5 5 0 0. 9.
 -11 -1 0 0 0 0 0 0 -5 5 0 0. 9.
 15 1 1 2 0 0 3.75538 -1.57646 2.29221 5 1.7768 0. 1
 -15 1 1 2 0 0 -3.75538 1.57646 -2.29221 5 1.7768 0. -1
</event>
<event>
 4 80 1 -1 -1 -1
 11 -1 0 0 0 0 0 0 5 5 0 0. 9.
 -11 -1 0 0 0 0 0 0 -4.97209 4.97209 0 0. 9.
 15 1 1 2 0 0 0.850065 -2.96916 -3.47378 4.97628 1.7768 0. 1
 -15 1 1 2 0 0 -0.850065 2.96916 3.50169 4.99581 1.7768 0. -1
</event>
<event>
 4 80 1 -1 -1 -1
 11 -1 0 0 0 0 0 0 5 5 0 0. 9.
 -11 -1 0 0 0 0 0 0 -4.99923 4.99923 0 0. 9.
 15 1 1 2 0 0 0.38743 -2.88359 -3.65656 4.99933 1.7768 0. -1
 -15 1 1 2 0 0 -0.38743 2.88359 3.65733 4.9999 1.7768 0. 1
</event>
<event>
 4 80 1 -1 -1 -1
 11 -1 0 0 0 0 0 0 5 5 0 0. 9.
 -11 -1 0 0 0 0 0 0 -5 5 0 0. 9.
 15 1 1 2 0 0 -2.66226 -0.774597 -3.76227 5 1.7768 0. -1
 -15 1 1 2 0 0 2.66226 0.774597 3.76227 5 1.7768 0. 1
</event>
<event>
 4 80 1 -1 -1 -1
 11 -1 0 0 0 0 0 0 5 5 0 0. 9.
 -11 -1 0 0 0 0 0 0 -2.44225 2.44225 0 0. 9.
 15 1 1 2 0 0 0.747294 -2.71287 2.41356 4.1111 1.7768 0. -1
 -15 1 1 2 0 0 -0.747294 2.71287 0.144181 3.33116 1.7768 0. 1
</event>
<event>
 4 80 1 -1 -1 -1
 11 -1 0 0 0 0 0 0 5 5 0 0. 9.
 -11 -1 0 0 0 0 0 0 -5 5 0 0. 9.
 15 1 1 2 0 0 -3.78472 -1.85134 2.02255 5 1.7768 0. 1
 -15 1 1 2 0 0 3.78472 1.85134 -2.02255 5 1.7768 0. -1
</event>
<event>
 4 80 1 -1 -1 -1
 11 -1 0 0 0 0 0 0 5 5 0 0. 9.
 -11 -1 0 0 0 0 0 0 -4.42515 4.42515 0 0. 9.
 15 1 1 2 0 0 -1.44248 2.03082 -3.29178 4.49428 1.7768 0. 1
 -15 1 1 2 0 0 1.44248 -2.03082 3.86663 4.93087 1.7768 0. -1
</event>
<event>
 4 80 1 -1 -1 -1
 11 -1 0 0 0 0 0 0 4.9967 4.9967 0 0. 9.
 -11 -1 0 0 0 0 0 0 -4.99644 4.99644 0 0. 9.
 15 1 1 2 0 0 3.64798 1.09402 2.7026 4.99664 1.7768 0. 1
 -15 1 1 2 0 0 -3.64798 -1.09402 -2.70235 4.9965 1.7768 0. -1
</event>
<event>
 4 80 1 -1 -1 -1
 11 -1 0 0 0 0 0 0 5 5 0 0. 9.
 -11 -1 0 0 0 0 0 0 -5 5 0 0. 9.
 15 1 1 2 0 0 0.190138 -1.71729 -4.34247 5 1.7768 0. 1
 -15 1 1 2 0 0 -0.190138 1.71729 4.34247 5 1.7768 0. -1
</event>
<event>
 4 80 1 -1 -1 -1
 11 -1 0 0 0 0 0 0 1.32155 1.32155 0 0. 9.
 -11 -1 0 0 0 0 0 0 -5 5 0 0. 9.
 15 1 1 2 0 0 -1.67928 -0.520357 -2.57626 3.58965 1.7768 0. 1
 -15 1 1 2 0 0 1.67928 0.520357 -1.10219 2.7319 1.7768 0. -1
</event>
<event>
 4 80 1 -1 -1 -1
 11 -1 0 0 0 0 0 0 4.83581 4.83581 0 0. 9.
 -11 -1 0 0 0 0 0 0 -5 5 0 0. 9.
 15 1 1 2 0 0 1.96503 3.27117 -2.62399 4.96034 1.7768 0. -1
 -15 1 1 2 0 0 -1.96503 -3.27117 2.4598 4.87547 1.7768 0. 1
</event>
<event>
 4 80 1 -1 -1 -1
 11 -1 0 0 0 0 0 0 5 5 0 0. 9.
 -11 -1 0 0 0 0 0 0 -5 5 0 0. 9.
 15 1 1 2 0 0 -1.38635 0.245494 4.45646 5 1.7768 0. -1
 -15 1 1 2 0 0 1.38635 -0.245494 -4.45646 5 1.7768 0. 1
</event>
<event>
 4 80 1 -1 -1 -1
 11 -1 0 0 0 0 0 0 5 5 0 0. 9.
 -11 -1 0 0 0 0 0 0 -4.99992 4.99992 0 0. 9.
 15 1 1 2 0 0 2.7229 1.60924 3.44069 4.99999 1.7768 0. 1
 -15 1 1 2 0 0 -2.7229 -1.60924 -3.44061 4.99993 1.7768 0. -1
</event>
<event>
 4 80 1 -1 -1 -1
 11 -1 0 0 0 0 0 0 5 5 0 0. 9.
 -11 -1 0 0 0 0 0 0 -2.96775 2.96775 0 0. 9.
 15 1 1 2 0 0 -0.94367 -1.41626 -2.04916 3.20204 1.7768 0. 1
 -15 1 1 2 0 0 0.94367 1.41626 4.08141 4.7657 1.7768 0. -1
</event>
<event>
 4 80 1 -1 -1 -1
 11 -1 0 0 0 0 0 0 1.8635 1.8635 0 0. 9.
 -11 -1 0 0 0 0 0 0 -4.9824 4.9824 0 0. 9.
 15 1 1 2 0 0 2.36352 0.69975 -1.30558 3.30728 1.7768 0. -1
 -15 1 1 2 0 0 -2.36352 -0.69975 -1.81332 3.53861 1.7768 0. 1
</event>
<event>
 4 80 1 -1 -1 -1
 11 -1 0 0 0 0 0 0 5 5 0 0. 9.
 -11 -1 0 0 0 0 0 0 -5 5 0 0. 9.
 15 1 1 2 0 0 -2.2656 -4.05739 -0.496892 5 1.7768 0. -1
 -15 1 1 2 0 0 2.2656 4.05739 0.496893 5 1.7768 0. 1
</event>
<event>
 4 80 1 -1 -1 -1
 11 -1 0 0 0 0 0 0 5 5 0 0. 9.
 -11 -1 0 0 0 0 0 0 -4.99386 4.99386 0 0. 9.
 15 1 1 2 0 0 2.71324 -2.62321 2.7542 4.99862 1.7768 0. -1
 -15 1 1 2 0 0 -2.71324 2.62321 -2.74806 4.99524 1.7768 0. 1
</event>
<event>
 4 80 1 -1 -1 -1
 11 -1 0 0 0 0 0 0 5 5 0 0. 9.
 -11 -1 0 0 0 0 0 0 -4.96753 4.96753 0 0. 9.
 15 1 1 2 0 0 -2.72695 0.896972 -3.64973 4.97183 1.7768 0. 1
 -15 1 1 2 0 0 2.72695 -0.896972 3.68219 4.9957 1.7768 0. -1
</event>
<event>
 4 80 1 -1 -1 -1
 11 -1 0 0 0 0 0 0 5 5 0 0. 9.
 -11 -1 0 0 0 0 0 0 -4.99993 4.99993 0 0. 9.
 15 1 1 2 0 0 -2.93315 -2.27683 2.8381 4.99999 1.7768 0. 1
 -15 1 1 2 0 0 2.93315 2.27683 -2.83803 4.99995 1.7768 0. -1
</event>
<event>
 4 80 1 -1 -1 -1
 11 -1 0 0 0 0 0 0 5 5 0 0. 9.
 -11 -1 0 0 0 0 0 0 -5 5 0 0. 9.
 15 1 1 2 0 0 2.02633 -2.92419 -3.03073 5 1.7768 0. 1
 -15 1 1 2 0 0 -2.02633 2.92419 3.03073 5 1.7768 0. -1
</event>
<event>
 4 80 1 -1 -1 -1
 11 -1 0 0 0 0 0 0 5 5 0 0. 9.
 -11 -1 0 0 0 0 0 0 -5 5 0 0. 9.
 15 1 1 2 0 0 -0.134206 0.0106901 4.67163 5 1.7768 0. -1
 -15 1 1 2 0 0 0.134206 -0.0106901 -4.67163 5 1.7768 0. 1
</event>
<event>
 4 80 1 -1 -1 -1
 11 -1 0 0 0 0 0 0 5 5 0 0. 9.
 -11 -1 0 0 0 0 0 0 -4.99966 4.99966 0 0. 9.
 15 1 1 2 0 0 0.567203 4.44579 -1.32415 4.99978 1.7768 0. 1
 -15 1 1 2 0 0 -0.567203 -4.44579 1.32449 4.99987 1.7768 0. -1
</event>
<event>
 4 80 1 -1 -1 -1
 11 -1 0 0 0 0 0 0 4.98982 4.98982 0 0. 9.
 -11 -1 0 0 0 0 0 0 -3.22475 3.22475 0 0. 9.
 15 1 1 2 0 0 -3.46541 0.0292947 1.86638 4.31868 1.7768 0. 1
 -15 1 1 2 0 0 3.46541 -0.0292947 -0.101315 3.89588 1.7768 0. -1
</event>
<event>
 4 80 1 -1 -1 -1
 11 -1 0 0 0 0 0 0 5 5 0 0. 9.
 -11 -1 0 0 0 0 0 0 -5 5 0 0. 9.
 15 1 1 2 0 0 -0.516317 -2.89842 3.62972 5 1.7768 0. -1
 -15 1 1 2 0 0 0.516317 2.89842 -3.62972 5 1.7768 0. 1
</event>
<event>
 4 80 1 -1 -1 -1
 11 -1 0 0 0 0 0 0 4.99997 4.99997 0 0. 9.
 -11 -1 0 0 0 0 0 0 -5 5 0 0. 9.
 15 1 1 2 0 0 -2.45341 -2.18761 3.32222 4.99997 1.7768 0. 1
 -15 1 1 2 0 0 2.45341 2.18761 -3.32225 4.99999 1.7768 0. -1
</event>
<event>
 4 80 1 -1 -1 -1
 11 -1 0 0 0 0 0 0 5 5 0 0. 9.
 -11 -1 0 0 0 0 0 0 -5 5 0 0. 9.
 15 1 1 2 0 0 0.0119728 -2.41172 -4.00322 5 1.7768 0. 1
 -15 1 1 2 0 0 -0.0119728 2.41172 4.00322 5 1.7768 0. -1
</event>
<event>
 4 80 1 -1 -1 -1
 11 -1 0 0 0 0 0 0 4.99972 4.99972 0 0. 9.
 -11 -1 0 0 0 0 0 0 -4.68486 4.68486 0 0. 9.
 15 1 1 2 0 0 0.634704 4.24009 1.53076 4.88694 1.7768 0. -1
 -15 1 1 2 0 0 -0.634704 -4.24009 -1.21591 4.79764 1.7768 0. 1
</event>
<event>
 4 80 1 -1 -1 -1
 11 -1 0 0 0 0 0 0 4.9999 4.9999 0 0. 9.
 -11 -1 0 0 0 0 0 0 -4.89977 4.89977 0 0. 9.
 15 1 1 2 0 0 -0.998468 2.61128 3.72788 4.98704 1.7768 0. 1
 -15 1 1 2 0 0 0.998468 -2.61128 -3.62775 4.91264 1.7768 0. -1
</event>
<event>
 4 80 1 -1 -1 -1
 11 -1 0 0 0 0 0 0 5 5 0 0. 9.
 -11 -1 0 0 0 0 0 0 -4.99993 4.99993 0 0. 9.
 15 1 1 2 0 0 1.56008 -2.16633 3.83606 4.99999 1.7768 0. 1
 -15 1 1 2 0 0 -1.56008 2.16633 -3.83599 4.99994 1.7768 0. -1
</event>
<event>
 4 80 1 -1 -1 -1
 11 -1 0 0 0 0 0 0 5 5 0 0. 9.
 -11 -1 0 0 0 0 0 0 -5 5 0 0. 9.
 15 1 1 2 0 0 0.582135 -2.95869 -3.57065 5 1.7768 0. -1
 -15 1 1 2 0 0 -0.582135 2.95869 3.57065 5 1.7768 0. 1
</event>
<event>
 4 80 1 -1 -1 -1
 11 -1 0 0 0 0 0 0 5 5 0 0. 9.
 -11 -1 0 0 0 0 0 0 -4.99998 4.99998 0 0. 9.
 15 1 1 2 0 0 3.1059 3.238 1.30803 4.99999 1.7768 0. 1
 -15 1 1 2 0 0 -3.1059 -3.238 -1.30801 4.99999 1.7768 0. -1
</event>
<event>
 4 80 1 -1 -1 -1
 11 -1 0 0 0 0 0 0 1.76143 1.76143 0 0. 9.
 -11 -1 0 0 0 0 0 0 -4.99799 4.99799 0 0. 9.
 15 1 1 2 0 0 -1.07773 1.10986 0.436018 2.39607 1.7768 0. -1
 -15 1 1 2 0 0 1.07773 -1.10986 -3.67257 4.36335 1.7768 0. 1
</event>
<event>
 4 80 1 -1 -1 -1
 11 -1 0 0 0 0 0 0 5 5 0 0. 9.
 -11 -1 0 0 0 0 0 0 -4.95364 4.95364 0 0. 9.
 15 1 1 2 0 0 -4.25218 -0.588063 1.80746 4.98513 1.7768 0. -1
 -15 1 1 2 0 0 4.25218 0.588063 -1.7611 4.96851 1.7768 0. 1
</event>
<event>
 4 80 1 -1 -1 -1
 11 -1 0 0 0 0 0 0 5 5 0 0. 9.
 -11 -1 0 0 0 0 0 0 -4.99999 4.99999 0 0. 9.
 15 1 1 2 0 0 -1.02988 4.55298 0.227976 5 1.7768 0. 1
 -15 1 1 2 0 0 1.02988 -4.55298 -0.227967 5 1.7768 0. -1
</event>
<event>
 4 80 1 -1 -1 -1
 11 -1 0 0 0 0 0 0 5 5 0 0. 9.
 -11 -1 0 0 0 0 0 0 -4.99932 4.99932 0 0. 9.
 15 1 1 2 0 0 -3.75046 -2.43971 -1.349 4.99957 1.7768 0. -1
 -15 1 1 2 0 0 3.75046 2.43971 1.34968 4.99975 1.7768 0. 1
</event>
<event>
 4 80 1 -1 -1 -1
 11 -1 0 0 0 0 0 0 4.99992 4.99992 0 0. 9.
 -11 -1 0 0 0 0 0 0 -5 5 0 0. 9.
 15 1 1 2 0 0 3.27082 -3.33482 -0.150443 4.99996 1.7768 0. 1
 -15 1 1 2 0 0 -3.27082 3.33482 0.150368 4.99996 1.7768 0. -1
</event>
<event>
 4 80 1 -1 -1 -1
 11 -1 0 0 0 0 0 0 5 5 0 0. 9.
 -11 -1 0 0 0 0 0 0 -5 5 0 0. 9.
 15 1 1 2 0 0 1.76119 -0.0512682 4.32873 5 1.7768 0. 1
 -15 1 1 2 0 0 -1.76119 0.0512682 -4.32873 5 1.7768 0. -1
</event>
<event>
 4 80 1 -1 -1 -1
 11 -1 0 0 0 0 0 0 5 5 0 0. 9.
 -11 -1 0 0 0 0 0 0 -5 5 0 0. 9.
 15 1 1 2 0 0 1.47209 -0.61106 -4.39339 5 1.7768 0. 1
 -15 1 1 2 0 0 -1.47209 0.61106 4.39339 5 1.7768 0. -1
</event>
<event>
 4 80 1 -1 -1 -1
 11 -1 0 0 0 0 0 0 5 5 0 0. 9.
 -11 -1 0 0 0 0 0 0 -4.99992 4.99992 0 0. 9.
 15 1 1 2 0 0 -4.16223 0.0834309 -2.12381 4.99994 1.7768 0. -1
 -15 1 1 2 0 0 4.16223 -0.0834309 2.12389 4.99998 1.7768 0. 1
</event>
<event>
 4 80 1 -1 -1 -1
 11 -1 0 0 0 0 0 0 4.99983 4.99983 0 0. 9.
 -11 -1 0 0 0 0 0 0 -5 5 0 0. 9.
 15 1 1 2 0 0 0.444216 -3.92981 2.49004 4.99987 1.7768 0. 1
 -15 1 1 2 0 0 -0.444216 3.92981 -2.49021 4.99996 1.7768 0. -1
</event>
<event>
 4 80 1 -1 -1 -1
 11 -1 0 0 0 0 0 0 4.96349 4.96349 0 0. 9.
 -11 -1 0 0 0 0 0 0 -4.99966 4.99966 0 0. 9.
 15 1 1 2 0 0 -3.78828 -0.0464549 -2.72084 4.99138 1.7768 0. 1
 -15 1 1 2 0 0 3.78828 0.0464549 2.68467 4.97176 1.7768 0. -1
</event>
<event>
 4 80 1 -1 -1 -1
 11 -1 0 0 0 0 0 0 5 5 0 0. 9.
 -11 -1 0 0 0 0 0 0 -5 5 0 0. 9.
 15 1 1 2 0 0 1.40307 -2.03974 -3.96398 5 1.7768 0. 1
 -15 1 1 2 0 0 -1.40307 2.03974 3.96398 5 1.7768 0. -1
</event>
<event>
 4 80 1 -1 -1 -1
 11 -1 0 0 0 0 0 0 5 5 0 0. 9.
 -11 -1 0 0 0 0 0 0 -2.97204 2.97204 0 0. 9.
 15 1 1 2 0 0 -1.43195 1.19856 3.97774 4.73995 1.7768 0. 1
 -15 1 1 2 0 0 1.43195 -1.19856 -1.94978 3.23209 1.7768 0. -1
</event>
<event>
 4 80 1 -1 -1 -1
 11 -1 0 0 0 0 0 0 5 5 0 0. 9.
 -11 -1 0 0 0 0 0 0 -0.87237 0.87237 0 0. 9.
 15 1 1 2 0 0 -0.365356 0.972643 2.56007 3.285 1.7768 0. -1
 -15 1 1 2 0 0 0.365356 -0.972643 1.56756 2.58737 1.7768 0. 1
</event>
<event>
 4 80 1 -1 -1 -1
 11 -1 0 0 0 0 0 0 5 5 0 0. 9.
 -11 -1 0 0 0 0 0 0 -5 5 0 0. 9.
 15 1 1 2 0 0 -1.28659 2.79323 3.51921 5 1.7768 0. 1
 -15 1 1 2 0 0 1.28659 -2.79323 -3.51921 5 1.7768 0. -1
</event>
<event>
 4 80 1 -1 -1 -1
 11 -1 0 0 0 0 0 0 2.0091 2.0091 0 0. 9.
 -11 -1 0 0 0 0 0 0 -4.99993 4.99993 0 0. 9.
 15 1 1 2 0 0 0.200148 2.58863 -1.07211 3.32389 1.7768 0. 1
 -15 1 1 2 0 0 -0.200148 -2.58863 -1.91872 3.68514 1.7768 0. -1
</event>
<event>
 4 80 1 -1 -1 -1
 11 -1 0 0 0 0 0 0 4.72789 4.72789 0 0. 9.
 -11 -1 0 0 0 0 0 0 -4.96498 4.96498 0 0. 9.
 15 1 1 2 0 0 3.29254 -3.07713 -0.0370532 4.84444 1.7768 0. 1
 -15 1 1 2 0 0 -3.29254 3.07713 -0.200039 4.84843 1.7768 0. -1
</event>
<event>
 4 80 1 -1 -1 -1
 11 -1 0 0 0 0 0 0 5 5 0 0. 9.
 -11 -1 0 0 0 0 0 0 -5 5 0 0. 9.
 15 1 1 2 0 0 0.272185 3.94112 -2.49716 5 1.7768 0. 1
 -15 1 1 2 0 0 -0.272185 -3.94112 2.49716 5 1.7768 0. -1
</event>
<event>
 4 80 1 -1 -1 -1
 11 -1 0 0 0 0 0 0 4.99999 4.99999 0 0. 9.
 -11 -1 0 0 0 0 0 0 -5 5 0 0. 9.
 15 1 1 2 0 0 -2.14014 2.61437 3.2291 4.99999 1.7768 0. 1
 -15 1 1 2 0 0 2.14014 -2.61437 -3.22911 5 1.7768 0. -1
</event>
<event>
 4 80 1 -1 -1 -1
 11 -1 0 0 0 0 0 0 5 5 0 0. 9.
 -11 -1 0 0 0 0 0 0 -2.47746 2.47746 0 0. 9.
 15 1 1 2 0 0 1.77849 2.30321 2.1884 4.0515 1.7768 0. 1
 -15 1 1 2 0 0 -1.77849 -2.30321 0.334141 3.42596 1.7768 0. -1
</event>
<event>
 4 80 1 -1 -1 -1
 11 -1 0 0 0 0 0 0 4.25712 4.25712 0 0. 9.
 -11 -1 0 0 0 0 0 0 -4.99907 4.99907 0 0. 9.
 15 1 1 2 0 0 0.818792 -3.74281 1.49104 4.47884 1.7768 0. 1
 -15 1 1 2 0 0 -0.818792 3.74281 -2.23299 4.77735 1.7768 0. -1
</event>
<event>
 4 80 1 -1 -1 -1
 11 -1 0 0 0 0 0 0 5 5 0 0. 9.
 -11 -1 0 0 0 0 0 0 -5 5 0 0. 9.
 15 1 1 2 0 0 0.571747 4.63611 0.147733 5 1.7768 0. -1
 -15 1 1 2 0 0 -0.571747 -4.63611 -0.147733 5 1.7768 0. 1
</event>
<event>
 4 80 1 -1 -1 -1
 11 -1 0 0 0 0 0 0 5 5 0 0. 9.
 -11 -1 0 0 0 0 0 0 -5 5 0 0. 9.
 15 1 1 2 0 0 -0.202317 -4.64847 -0.439382 5 1.7768 0. -1
 -15 1 1 2 0 0 0.202317 4.64847 0.439382 5 1.7768 0. 1
</event>
<event>
 4 80 1 -1 -1 -1
 11 -1 0 0 0 0 0 0 5 5 0 0. 9.
 -11 -1 0 0 0 0 0 0 -3.48683 3.48683 0 0. 9.
 15 1 1 2 0 0 -2.95662 1.16634 2.833 4.61363 1.7768 0. -1
 -15 1 1 2 0 0 2.95662 -1.16634 -1.31983 3.8732 1.7768 0. 1
</event>
<event>
 4 80 1 -1 -1 -1
 11 -1 0 0 0 0 0 0 4.99564 4.99564 0 0. 9.
 -11 -1 0 0 0 0 0 0 -2.31903 2.31903 0 0. 9.
 15 1 1 2 0 0 1.45745 0.613813 -1.27754 2.70014 1.7768 0. -1
 -15 1 1 2 0 0 -1.45745 -0.613813 3.95415 4.61454 1.7768 0. 1
</event>
<event>
 4 80 1 -1 -1 -1
 11 -1 0 0 0 0 0 0 5 5 0 0. 9.
 -11 -1 0 0 0 0 0 0 -4.99973 4.99973 0 0. 9.
 15 1 1 2 0 0 4.0948 -0.0794768 -2.25092 4.99981 1.7768 0. -1
 -15 1 1 2 0 0 -4.0948 0.0794768 2.25119 4.99993 1.7768 0. 1
</event>
<event>
 4 80 1 -1 -1 -1
 11 -1 0 0 0 0 0 0 4.98957 4.98957 0 0. 9.
 -11 -1 0 0 0 0 0 0 -5 5 0 0. 9.
 15 1 1 2 0 0 -1.4882 -4.41175 0.329234 4.99443 1.7768 0. 1
 -15 1 1 2 0 0 1.4882 4.41175 -0.339665 4.99513 1.7768 0. -1
</event>
<event>
 4 80 1 -1 -1 -1
 11 -1 0 0 0 0 0 0 4.92391 4.92391 0 0. 9.
 -11 -1 0 0 0 0 0 0 -5 5 0 0. 9.
 15 1 1 2 0 0 1.91962 -2.69942 3.20088 4.93712 1.7768 0. 1
 -15 1 1 2 0 0 -1.91962 2.69942 -3.27697 4.98679 1.7768 0. -1
</event>
<event>
 4 80 1 -1 -1 -1
 11 -1 0 0 0 0 0 0 0.822408 0.822408 0 0. 9.
 -11 -1 0 0 0 0 0 0 -5 5 0 0. 9.
 15 1 1 2 0 0 0.0361232 -0.312063 -3.41676 3.86402 1.7768 0. -1
 -15 1 1 2 0 0 -0.0361232 0.312063 -0.760837 1.95839 1.7768 0. 1
</event>
<event>
 4 80 1 -1 -1 -1
 11 -1 0 0 0 0 0 0 5 5 0 0. 9.
 -11 -1 0 0 0 0 0 0 -5 5 0 0. 9.
 15 1 1 2 0 0 2.53898 -3.91453 -0.26894 5 1.7768 0. -1
 -15 1 1 2 0 0 -2.53898 3.91453 0.26894 5 1.7768 0. 1
</event>
<event>
 4 80 1 -1 -1 -1
 11 -1 0 0 0 0 0 0 5 5 0 0. 9.
 -11 -1 0 0 0 0 0 0 -4.98938 4.98938 0 0. 9.
 15 1 1 2 0 0 -2.6636 -1.22877 -3.62574 4.99083 1.7768 0. -1
 -15 1 1 2 0 0 2.6636 1.22877 3.63636 4.99855 1.7768 0. 1
</event>
<event>
 4 80 1 -1 -1 -1
 11 -1 0 0 0 0 0 0 5 5 0 0. 9.
 -11 -1 0 0 0 0 0 0 -5 5 0 0. 9.
 15 1 1 2 0 0 0.022524 2.20029 4.12316 5 1.7768 0. 1
 -15 1 1 2 0 0 -0.022524 -2.20029 -4.12316 5 1.7768 0. -1
</event>
<event>
 4 80 1 -1 -1 -1
 11 -1 0 0 0 0 0 0 4.77364 4.77364 0 0. 9.
 -11 -1 0 0 0 0 0 0 -5 5 0 0. 9.
 15 1 1 2 0 0 1.46449 1.68255 3.85459 4.79493 1.7768 0. -1
 -15 1 1 2 0 0 -1.46449 -1.68255 -4.08095 4.97871 1.7768 0. 1
</event>
<event>
 4 80 1 -1 -1 -1
 11 -1 0 0 0 0 0 0 5 5 0 0. 9.
 -11 -1 0 0 0 0 0 0 -5 5 0 0. 9.
 15 1 1 2 0 0 3.10648 3.37153 -0.908218 5 1.7768 0. 1
 -15 1 1 2 0 0 -3.10648 -3.37153 0.908218 5 1.7768 0. -1
</event>
<event>
 4 80 1 -1 -1 -1
 11 -1 0 0 0 0 0 0 5 5 0 0. 9.
 -11 -1 0 0 0 0 0 0 -2.29467 2.29467 0 0. 9.
 15 1 1 2 0 0 0.518386 2.83651 1.31664 3.63398 1.7768 0. -1
 -15 1 1 2 0 0 -0.518386 -2.83651 1.38869 3.6607 1.7768 0. 1
</event>
<event>
 4 80 1 -1 -1 -1
 11 -1 0 0 0 0 0 0 5 5 0 0. 9.
 -11 -1 0 0 0 0 0 0 -5 5 0 0. 9.
 15 1 1 2 0 0 -1.25707 0.147179 -4.49893 5 1.7768 0. 1
 -15 1 1 2 0 0 1.25707 -0.147179 4.49893 5 1.7768 0. -1
</event>
<event>
 4 80 1 -1 -1 -1
 11 -1 0 0 0 0 0 0 4.3887 4.3887 0 0. 9.
 -11 -1 0 0 0 0 0 0 -0.745153 0.745153 0 0. 9.
 15 1 1 2 0 0 -0.227628 -0.194385 2.03669 2.71946 1.7768 0. 1
 -15 1 1 2 0 0 0.227628 0.194385 1.60685 2.41439 1.7768 0. -1
</event>
<event>
 4 80 1 -1 -1 -1
 11 -1 0 0 0 0 0 0 4.93711 4.93711 0 0. 9.
 -11 -1 0 0 0 0 0 0 -5 5 0 0. 9.
 15 1 1 2 0 0 -2.82524 3.14716 -1.93969 4.98063 1.7768 0. 1
 -15 1 1 2 0 0 2.82524 -3.14716 1.8768 4.95648 1.7768 0. -1
</event>
<event>
 4 80 1 -1 -1 -1
 11 -1 0 0 0 0 0 0 5 5 0 0. 9.
 -11 -1 0 0 0 0 0 0 -4.99354 4.99354 0 0. 9.
 15 1 1 2 0 0 2.7871 1.82859 -3.2676 4.99466 1.7768 0. -1
 -15 1 1 2 0 0 -2.7871 -1.82859 3.27406 4.99888 1.7768 0. 1
</event>
<event>
 4 80 1 -1 -1 -1
 11 -1 0 0 0 0 0 0 5 5 0 0. 9.
 -11 -1 0 0 0 0 0 0 -4.9831 4.9831 0 0. 9.
 15 1 1 2 0 0 0.996102 3.78282 -2.53238 4.98725 1.7768 0. -1
 -15 1 1 2 0 0 -0.996102 -3.78282 2.54928 4.99585 1.7768 0. 1
</event>
<event>
 4 80 1 -1 -1 -1
 11 -1 0 0 0 0 0 0 5 5 0 0. 9.
 -11 -1 0 0 0 0 0 0 -4.99844 4.99844 0 0. 9.
 15 1 1 2 0 0 1.04625 2.31621 3.92188 4.99983 1.7768 0. 1
 -15 1 1 2 0 0 -1.04625 -2.31621 -3.92032 4.99861 1.7768 0. -1
</event>
<event>
 4 80 1 -1 -1 -1
 11 -1 0 0 0 0 0 0 5 5 0 0. 9.
 -11 -1 0 0 0 0 0 0 -5 5 0 0. 9.
 15 1 1 2 0 0 -0.513122 -4.59268 -0.697319 5 1.7768 0. -1
 -15 1 1 2 0 0 0.513122 4.59268 0.697319 5 1.7768 0. 1
</event>
<event>
 4 80 1 -1 -1 -1
 11 -1 0 0 0 0 0 0 4.99831 4.99831 0 0. 9.
 -11 -1 0 0 0 0 0 0 -4.22644 4.22644 0 0. 9.
 15 1 1 2 0 0 -0.298317 2.76235 3.59842 4.88118 1.7768 0. 1
 -15 1 1 2 0 0 0.298317 -2.76235 -2.82655 4.34358 1.7768 0. -1
</event>
<event>
 4 80 1 -1 -1 -1
 11 -1 0 0 0 0 0 0 5 5 0 0. 9.
 -11 -1 0 0 0 0 0 0 -5 5 0 0. 9.
 15 1 1 2 0 0 0.592007 0.874864 4.55262 5 1.7768 0. -1
 -15 1 1 2 0 0 -0.592007 -0.874864 -4.55263 5 1.7768 0. 1
</event>
<event>
 4 80 1 -1 -1 -1
 11 -1 0 0 0 0 0 0 5 5 0 0. 9.
 -11 -1 0 0 0 0 0 0 -4.99999 4.99999 0 0. 9.
 15 1 1 2 0 0 -3.5097 -2.60821 1.6497 5 1.7768 0. 1
 -15 1 1 2 0 0 3.5097 2.60821 -1.64969 4.99999 1.7768 0. -1
</event>
<event>
 4 80 1 -1 -1 -1
 11 -1 0 0 0 0 0 0 5 5 0 0. 9.
 -11 -1 0 0 0 0 0 0 -4.99532 4.99532 0 0. 9.
 15 1 1 2 0 0 -1.87232 0.379052 -4.26025 4.99567 1.7768 0. -1
 -15 1 1 2 0 0 1.87232 -0.379052 4.26492 4.99966 1.7768 0. 1
</event>
<event>
 4 80 1 -1 -1 -1
 11 -1 0 0 0 0 0 0 5 5 0 0. 9.
 -11 -1 0 0 0 0 0 0 -4.84669 4.84669 0 0. 9.
 15 1 1 2 0 0 2.53339 3.05942 -2.22526 4.8875 1.7768 0. 1
 -15 1 1 2 0 0 -2.53339 -3.05942 2.37858 4.95918 1.7768 0. -1
</event>
<event>
 4 80 1 -1 -1 -1
 11 -1 0 0 0 0 0 0 4.67938 4.67938 0 0. 9.
 -11 -1 0 0 0 0 0 0 -2.93593 2.93593 0 0. 9.
 15 1 1 2 0 0 1.71266 -1.70368 -1.36598 3.29535 1.7768 0. 1
 -15 1 1 2 0 0 -1.71266 1.70368 3.10943 4.31995 1.7768 0. -1
</event>
<event>
 4 80 1 -1 -1 -1
 11 -1 0 0 0 0 0 0 5 5 0 0. 9.
 -11 -1 0 0 0 0 0 0 -4.98372 4.98372 0 0. 9.
 15 1 1 2 0 0 -0.916546 -0.759379 -4.50231 4.9845 1.7768 0. -1
 -15 1 1 2 0 0 0.916546 0.759379 4.5186 4.99921 1.7768 0. 1
</event>
<event>
 4 80 1 -1 -1 -1
 11 -1 0 0 0 0 0 0 5 5 0 0. 9.
 -11 -1 0 0 0 0 0 0 -4.99975 4.99975 0 0. 9.
 15 1 1 2 0 0 -1.4934 0.432981 4.40731 4.99999 1.7768 0. -1
 -15 1 1 2 0 0 1.4934 -0.432981 -4.40706 4.99976 1.7768 0. 1
</event>
<event>
 4 80 1 -1 -1 -1
 11 -1 0 0 0 0 0 0 5 5 0 0. 9.
 -11 -1 0 0 0 0 0 0 -5 5 0 0. 9.
 15 1 1 2 0 0 1.64777 3.47864 -2.6507 5 1.7768 0. 1
 -15 1 1 2 0 0 -1.64777 -3.47864 2.6507 5 1.7768 0. -1
</event>
<event>
 4 80 1 -1 -1 -1
 11 -1 0 0 0 0 0 0 5 5 0 0. 9.
 -11 -1 0 0 0 0 0 0 -4.45631 4.45631 0 0. 9.
 15 1 1 2 0 0 2.45304 3.55989 0.931421 4.76608 1.7768 0. -1
 -15 1 1 2 0 0 -2.45304 -3.55989 -0.387735 4.69023 1.7768 0. 1
</event>
<event>
 4 80 1 -1 -1 -1
 11 -1 0 0 0 0 0 0 5 5 0 0. 9.
 -11 -1 0 0 0 0 0 0 -5 5 0 0. 9.
 15 1 1 2 0 0 -3.79753 -1.22886 -2.43125 5 1.7768 0. 1
 -15 1 1 2 0 0 3.79753 1.22886 2.43125 5 1.7768 0. -1
</event>
<event>
 4 80 1 -1 -1 -1
 11 -1 0 0 0 0 0 0 1.85533 1.85533 0 0. 9.
 -11 -1 0 0 0 0 0 0 -5 5 0 0. 9.
 15 1 1 2 0 0 1.52426 -1.7496 -0.607871 2.98524 1.7768 0. 1
 -15 1 1 2 0 0 -1.52426 1.7496 -2.5368 3.87008 1.7768 0. -1
</event>
<event>
 4 80 1 -1 -1 -1
 11 -1 0 0 0 0 0 0 4.99905 4.99905 0 0. 9.
 -11 -1 0 0 0 0 0 0 -5 5 0 0. 9.
 15 1 1 2 0 0 -2.42844 0.713776 3.92773 4.99916 1.7768 0. 1
 -15 1 1 2 0 0 2.42844 -0.713776 -3.92867 4.9999 1.7768 0. -1
</event>
<event>
 4 80 1 -1 -1 -1
 11 -1 0 0 0 0 0 0 5 5 0 0. 9.
 -11 -1 0 0 0 0 0 0 -5 5 0 0. 9.
 15 1 1 2 0 0 1.69642 3.06059 3.09793 5 1.7768 0. 1
 -15 1 1 2 0 0 -1.69642 -3.06059 -3.09793 5 1.7768 0. -1
</event>
<event>
 4 80 1 -1 -1 -1
 11 -1 0 0 0 0 0 0 5 5 0 0. 9.
 -11 -1 0 0 0 0 0 0 -5 5 0 0. 9.
 15 1 1 2 0 0 0.915304 2.08303 4.08233 5 1.7768 0. -1
 -15 1 1 2 0 0 -0.915304 -2.08303 -4.08234 5 1.7768 0. 1
</event>
<event>
 4 80 1 -1 -1 -1
 11 -1 0 0 0 0 0 0 5 5 0 0. 9.
 -11 -1 0 0 0 0 0 0 -5 5 0 0. 9.
 15 1 1 2 0 0 0.00773107 2.57916 -3.89745 5 1.7768 0. 1
 -15 1 1 2 0 0 -0.00773107 -2.57916 3.89745 5 1.7768 0. -1
</event>
<event>
 4 80 1 -1 -1 -1
 11 -1 0 0 0 0 0 0 5 5 0 0. 9.
 -11 -1 0 0 0 0 0 0 -4.99997 4.99997 0 0. 9.
 15 1 1 2 0 0 -2.24384 3.95497 -1.07959 4.99998 1.7768 0. 1
 -15 1 1 2 0 0 2.24384 -3.95497 1.07962 4.99999 1.7768 0. -1
</event>
<event>
 4 80 1 -1 -1 -1
 11 -1 0 0 0 0 0 0 5 5 0 0. 9.
 -11 -1 0 0 0 0 0 0 -4.99905 4.99905 0 0. 9.
 15 1 1 2 0 0 -4.23934 1.66446 -1.046 4.99943 1.7768 0. -1
 -15 1 1 2 0 0 4.23934 -1.66446 1.04695 4.99962 1.7768 0. 1
</event>
<event>
 4 80 1 -1 -1 -1
 11 -1 0 0 0 0 0 0 4.99976 4.99976 0 0. 9.
 -11 -1 0 0 0 0 0 0 -4.99423 4.99423 0 0. 9.
 15 1 1 2 0 0 2.15795 -2.10001 -3.5673 4.99502 1.7768 0. 1
 -15 1 1 2 0 0 -2.15795 2.10001 3.57284 4.99897 1.7768 0. -1
</event>
<event>
 4 80 1 -1 -1 -1
 11 -1 0 0 0 0 0 0 4.99982 4.99982 0 0. 9.
 -11 -1 0 0 0 0 0 0 -5 5 0 0. 9.
 15 1 1 2 0 0 3.08033 -2.0974 -2.82036 4.99996 1.7768 0. -1
 -15 1 1 2 0 0 -3.08033 2.0974 2.82018 4.99986 1.7768 0. 1
</event>
<event>
 4 80 1 -1 -1 -1
 11 -1 0 0 0 0 0 0 5 5 0 0. 9.
 -11 -1 0 0 0 0 0 0 -4.99997 4.99997 0 0. 9.
 15 1 1 2 0 0 -4.16997 1.31092 1.6538 4.99999 1.7768 0. -1
 -15 1 1 2 0 0 4.16997 -1.31092 -1.65377 4.99998 1.7768 0. 1
</event>
<event>
 4 80 1 -1 -1 -1
 11 -1 0 0 0 0 0 0 5 5 0 0. 9.
 -11 -1 0 0 0 0 0 0 -5 5 0 0. 9.
 15 1 1 2 0 0 1.92802 0.828053 -4.17604 5 1.7768 0. -1
 -15 1 1 2 0 0 -1.92802 -0.828053 4.17604 5 1.7768 0. 1
</event>
<event>
 4 80 1 -1 -1 -1
 11 -1 0 0 0 0 0 0 4.96632 4.96632 0 0. 9.
 -11 -1 0 0 0 0 0 0 -5 5 0 0. 9.
 15 1 1 2 0 0 1.93271 -3.82946 1.79252 4.97704 1.7768 0. -1
 -15 1 1 2 0 0 -1.93271 3.82946 -1.8262 4.98927 1.7768 0. 1
</event>
<event>
 4 80 1 -1 -1 -1
 11 -1 0 0 0 0 0 0 4.99995 4.99995 0 0. 9.
 -11 -1 0 0 0 0 0 0 -5 5 0 0. 9.
 15 1 1 2 0 0 -3.96071 -0.899799 2.31194 4.99997 1.7768 0. 1
 -15 1 1 2 0 0 3.96071 0.899799 -2.31199 4.99999 1.7768 0. -1
</event>
<event>
 4 80 1 -1 -1 -1
 11 -1 0 0 0 0 0 0 4.99792 4.99792 0 0. 9.
 -11 -1 0 0 0 0 0 0 -5 5 0 0. 9.
 15 1 1 2 0 0 -3.8312 -2.6736 0.0739396 4.99894 1.7768 0. -1
 -15 1 1 2 0 0 3.8312 2.6736 -0.076022 4.99897 1.7768 0. 1
</event>
<event>
 4 80 1 -1 -1 -1
 11 -1 0 0 0 0 0 0 1.45741 1.45741 0 0. 9.
 -11 -1 0 0 0 0 0 0 -5 5 0 0. 9.
 15 1 1 2 0 0 0.308621 1.45902 -0.120322 2.32297 1.7768 0. 1
 -15 1 1 2 0 0 -0.308621 -1.45902 -3.42227 4.13444 1.7768 0. -1
</event>
<event>
 4 80 1 -1 -1 -1
 11 -1 0 0 0 0 0 0 5 5 0 0. 9.
 -11 -1 0 0 0 0 0 0 -5 5 0 0. 9.
 15 1 1 2 0 0 -3.28866 3.193 -0.911981 5 1.7768 0. -1
 -15 1 1 2 0 0 3.28866 -3.193 0.911983 5 1.7768 0. 1
</event>
<event>
 4 80 1 -1 -1 -1
 11 -1 0 0 0 0 0 0 4.877 4.877 0 0. 9.
 -11 -1 0 0 0 0 0 0 -5 5 0 0. 9.
 15 1 1 2 0 0 -0.16241 4.32915 -1.62986 4.95803 1.7768 0. 1
 -15 1 1 2 0 0 0.16241 -4.32915 1.50686 4.91897 1.7768 0. -1
</event>
<event>
 4 80 1 -1 -1 -1
 11 -1 0 0 0 0 0 0 4.9883 4.9883 0 0. 9.
 -11 -1 0 0 0 0 0 0 -0.788047 0.788047 0 0. 9.
 15 1 1 2 0 0 0.0979717 0.277001 0.892768 2.01025 1.7768 0. -1
 -15 1 1 2 0 0 -0.0979717 -0.277001 3.30749 3.7661 1.7768 0. 1
</event>
<event>
 4 80 1 -1 -1 -1
 11 -1 0 0 0 0 0 0 5 5 0 0. 9.
 -11 -1 0 0 0 0 0 0 -5 5 0 0. 9.
 15 1 1 2 0 0 -1.88114 -1.35879 4.05676 5 1.7768 0. 1
 -15 1 1 2 0 0 1.88114 1.35879 -4.05676 5 1.7768 0. -1
</event>
<event>
 4 80 1 -1 -1 -1
 11 -1 0 0 0 0 0 0 5 5 0 0. 9.
 -11 -1 0 0 0 0 0 0 -5 5 0 0. 9.
 15 1 1 2 0 0 1.80111 3.23923 2.84705 5 1.7768 0. -1
 -15 1 1 2 0 0 -1.80111 -3.23923 -2.84705 5 1.7768 0. 1
</event>
<event>
 4 80 1 -1 -1 -1
 11 -1 0 0 0 0 0 0 5 5 0 0. 9.
 -11 -1 0 0 0 0 0 0 -4.99663 4.99663 0 0. 9.
 15 1 1 2 0 0 -0.813798 2.54472 -3.83075 4.99702 1.7768 0. -1
 -15 1 1 2 0 0 0.813798 -2.54472 3.83412 4.99961 1.7768 0. 1
</event>
<event>
 4 80 1 -1 -1 -1
 11 -1 0 0 0 0 0 0 5 5 0 0. 9.
 -11 -1 0 0 0 0 0 0 -4.08245 4.08245 0 0. 9.
 15 1 1 2 0 0 -3.21481 0.0894296 3.10127 4.80818 1.7768 0. 1
 -15 1 1 2 0 0 3.21481 -0.0894296 -2.18372 4.27426 1.7768 0. -1
</event>
<event>
 4 80 1 -1 -1 -1
 11 -1 0 0 0 0 0 0 0.704281 0.704281 0 0. 9.
 -11 -1 0 0 0 0 0 0 -5 5 0 0. 9.
 15 1 1 2 0 0 -0.129641 -0.588164 -2.19428 2.8871 1.7768 0. -1
 -15 1 1 2 0 0 0.129641 0.588164 -2.10144 2.81718 1.7768 0. 1
</event>
<event>
 4 80 1 -1 -1 -1
 11 -1 0 0 0 0 0 0 4.99336 4.99336 0 0. 9.
 -11 -1 0 0 0 0 0 0 -5 5 0 0. 9.
 15 1 1 2 0 0 2.26381 1.46133 -3.81761 4.99921 1.7768 0. -1
 -15 1 1 2 0 0 -2.26381 -1.46133 3.81096 4.99414 1.7768 0. 1
</event>
<event>
 4 80 1 -1 -1 -1
 11 -1 0 0 0 0 0 0 4.99409 4.99409 0 0. 9.
 -11 -1 0 0 0 0 0 0 -4.76657 4.76657 0 0. 9.
 15 1 1 2 0 0 2.09568 -3.71511 -1.45288 4.84381 1.7768 0. 1
 -15 1 1 2 0 0 -2.09568 3.71511 1.6804 4.91684 1.7768 0. -1
</event>
<event>
 4 80 1 -1 -1 -1
 11 -1 0 0 0 0 0 0 5 5 0 0. 9.
 -11 -1 0 0 0 0 0 0 -4.33442 4.33442 0 0. 9.
 15 1 1 2 0 0 -0.287072 4.11542 -0.893152 4.5798 1.7768 0. -1
 -15 1 1 2 0 0 0.287072 -4.11542 1.55873 4.75462 1.7768 0. 1
</event>
<event>
 4 80 1 -1 -1 -1
 11 -1 0 0 0 0 0 0 5 5 0 0. 9.
 -11 -1 0 0 0 0 0 0 -1.45427 1.45427 0 0. 9.
 15 1 1 2 0 0 -1.57671 0.775251 0.560291 2.56099 1.7768 0. 1
 -15 1 1 2 0 0 1.57671 -0.775251 2.98544 3.89328 1.7768 0. -1
</event>
<event>
 4 80 1 -1 -1 -1
 11 -1 0 0 0 0 0 0 4.99991 4.99991 0 0. 9.
 -11 -1 0 0 0 0 0 0 -2.24397 2.24397 0 0. 9.
 15 1 1 2 0 0 -0.969667 -1.07395 -1.26369 2.61692 1.7768 0. 1
 -15 1 1 2 0 0 0.969667 1.07395 4.01963 4.62696 1.7768 0. -1
</event>
<event>
 4 80 1 -1 -1 -1
 11 -1 0 0 0 0 0 0 5 5 0 0. 9.
 -11 -1 0 0 0 0 0 0 -5 5 0 0. 9.
 15 1 1 2 0 0 -4.52688 0.614555 -0.98589 5 1.7768 0. -1
 -15 1 1 2 0 0 4.52688 -0.614555 0.98589 5 1.7768 0. 1
</event>
<event>
 4 80 1 -1 -1 -1
 11 -1 0 0 0 0 0 0 5 5 0 0. 9.
 -11 -1 0 0 0 0 0 0 -5 5 0 0. 9.
 15 1 1 2 0 0 -2.67296 -2.14006 3.18083 5 1.7768 0. -1
 -15 1 1 2 0 0 2.67296 2.14006 -3.18083 5 1.7768 0. 1
</event>
<event>
 4 80 1 -1 -1 -1
 11 -1 0 0 0 0 0 0 5 5 0 0. 9.
 -11 -1 0 0 0 0 0 0 -4.35871 4.35871 0 0. 9.
 15 1 1 2 0 0 -2.48686 -3.44537 1.08448 4.73169 1.7768 0. 1
 -15 1 1 2 0 0 2.48686 3.44537 -0.443182 4.62701 1.7768 0. -1
</event>
<event>
 4 80 1 -1 -1 -1
 11 -1 0 0 0 0 0 0 4.39049 4.39049 0 0. 9.
 -11 -1 0 0 0 0 0 0 -4.99911 4.99911 0 0. 9.
 15 1 1 2 0 0 2.10246 2.14755 -3.43476 4.89771 1.7768 0. -1
 -15 1 1 2 0 0 -2.10246 -2.14755 2.82614 4.49189 1.7768 0. 1
</event>
<event>
 4 80 1 -1 -1 -1
 11 -1 0 0 0 0 0 0 5 5 0 0. 9.
 -11 -1 0 0 0 0 0 0 -4.95411 4.95411 0 0. 9.
 15 1 1 2 0 0 4.28709 -1.66854 -0.647643 4.97397 1.7768 0. 1
 -15 1 1 2 0 0 -4.28709 1.66854 0.69353 4.98015 1.7768 0. -1
</event>
<event>
 4 80 1 -1 -1 -1
 11 -1 0 0 0 0 0 0 4.8105 4.8105 0 0. 9.
 -11 -1 0 0 0 0 0 0 -5 5 0 0. 9.
 15 1 1 2 0 0 -2.23913 -3.29424 2.14824 4.86193 1.7768 0. -1
 -15 1 1 2 0 0 2.23913 3.29424 -2.33773 4.94858 1.7768 0. 1
</event>
<event>
 4 80 1 -1 -1 -1
 11 -1 0 0 0 0 0 0 4.99867 4.99867 0 0. 9.
 -11 -1 0 0 0 0 0 0 -4.99998 4.99998 0 0. 9.
 15 1 1 2 0 0 2.86083 -3.50791 -1.16072 4.99948 1.7768 0. -1
 -15 1 1 2 0 0 -2.86083 3.50791 1.15941 4.99917 1.7768 0. 1
</event>
<event>
 4 80 1 -1 -1 -1
 11 -1 0 0 0 0 0 0 4.99562 4.99562 0 0. 9.
 -11 -1 0 0 0 0 0 0 -4.99983 4.99983 0 0. 9.
 15 1 1 2 0 0 -4.13453 0.740118 2.04178 4.99687 1.7768 0. -1
 -15 1 1 2 0 0 4.13453 -0.740118 -2.04599 4.99859 1.7768 0. 1
</event>
<event>
 4 80 1 -1 -1 -1
 11 -1 0 0 0 0 0 0 4.99788 4.99788 0 0. 9.
 -11 -1 0 0 0 0 0 0 -5 5 0 0. 9.
 15 1 1 2 0 0 -0.817382 3.71044 2.71854 4.99836 1.7768 0. 1
 -15 1 1 2 0 0 0.817382 -3.71044 -2.72066 4.99952 1.7768 0. -1
</event>
<event>
 4 80 1 -1 -1 -1
 11 -1 0 0 0 0 0 0 4.99547 4.99547 0 0. 9.
 -11 -1 0 0 0 0 0 0 -4.97051 4.97051 0 0. 9.
 15 1 1 2 0 0 3.29518 -2.94421 1.47732 4.98666 1.7768 0. -1
 -15 1 1 2 0 0 -3.29518 2.94421 -1.45236 4.97932 1.7768 0. 1
</event>
<event>
 4 80 1 -1 -1 -1
 11 -1 0 0 0 0 0 0 5 5 0 0. 9.
 -11 -1 0 0 0 0 0 0 -5 5 0 0. 9.
 15 1 1 2 0 0 3.19779 -0.937491 -3.27682 5 1.7768 0. 1
 -15 1 1 2 0 0 -3.19779 0.937491 3.27682 5 1.7768 0. -1
</event>
<event>
 4 80 1 -1 -1 -1
 11 -1 0 0 0 0 0 0 5 5 0 0. 9.
 -11 -1 0 0 0 0 0 0 -5 5 0 0. 9.
 15 1 1 2 0 0 -4.30871 0.0147957 -1.81027 5 1.7768 0. -1
 -15 1 1 2 0 0 4.30871 -0.0147957 1.81027 5 1.7768 0. 1
</event>
<event>
 4 80 1 -1 -1 -1
 11 -1 0 0 0 0 0 0 5 5 0 0. 9.
 -11 -1 0 0 0 0 0 0 -5 5 0 0. 9.
 15 1 1 2 0 0 1.37429 -1.11919 4.32447 5 1.7768 0. -1
 -15 1 1 2 0 0 -1.37429 1.11919 -4.32447 5 1.7768 0. 1
</event>
<event>
 4 80 1 -1 -1 -1
 11 -1 0 0 0 0 0 0 5 5 0 0. 9.
 -11 -1 0 0 0 0 0 0 -5 5 0 0. 9.
 15 1 1 2 0 0 -3.66246 2.20235 -1.89165 5 1.7768 0. -1
 -15 1 1 2 0 0 3.66246 -2.20235 1.89165 5 1.7768 0. 1
</event>
<event>
 4 80 1 -1 -1 -1
 11 -1 0 0 0 0 0 0 5 5 0 0. 9.
 -11 -1 0 0 0 0 0 0 -5 5 0 0. 9.
 15 1 1 2 0 0 -0.925217 4.57947 -0.121069 5 1.7768 0. -1
 -15 1 1 2 0 0 0.925217 -4.57947 0.121068 5 1.7768 0. 1
</event>
<event>
 4 80 1 -1 -1 -1
 11 -1 0 0 0 0 0 0 4.39398 4.39398 0 0. 9.
 -11 -1 0 0 0 0 0 0 -4.9937 4.9937 0 0. 9.
 15 1 1 2 0 0 -0.0673962 1.05709 3.91143 4.42481 1.7768 0. -1
 -15 1 1 2 0 0 0.0673962 -1.05709 -4.51114 4.96288 1.7768 0. 1
</event>
<event>
 4 80 1 -1 -1 -1
 11 -1 0 0 0 0 0 0 5 5 0 0. 9.
 -11 -1 0 0 0 0 0 0 -4.981 4.981 0 0. 9.
 15 1 1 2 0 0 -3.72531 -2.42408 -1.4023 4.98781 1.7768 0. 1
 -15 1 1 2 0 0 3.72531 2.42408 1.4213 4.99319 1.7768 0. -1
</event>
<event>
 4 80 1 -1 -1 -1
 11 -1 0 0 0 0 0 0 4.99999 4.99999 0 0. 9.
 -11 -1 0 0 0 0 0 0 -4.99806 4.99806 0 0. 9.
 15 1 1 2 0 0 -2.74869 3.42557 1.59555 4.99933 1.7768 0. 1
 -15 1 1 2 0 0 2.74869 -3.42557 -1.59362 4.99871 1.7768 0. -1
</event>
<event>
 4 80 1 -1 -1 -1
 11 -1 0 0 0 0 0 0 5 5 0 0. 9.
 -11 -1 0 0 0 0 0 0 -5 5 0 0. 9.
 15 1 1 2 0 0 4.50946 -1.19556 0.278757 5 1.7768 0. -1
 -15 1 1 2 0 0 -4.50946 1.19556 -0.278757 5 1.7768 0. 1
</event>
<event>
 4 80 1 -1 -1 -1
 11 -1 0 0 0 0 0 0 5 5 0 0. 9.
 -11 -1 0 0 0 0 0 0 -5 5 0 0. 9.
 15 1 1 2 0 0 -4.417 -1.24608 -0.88301 5 1.7768 0. 1
 -15 1 1 2 0 0 4.417 1.24608 0.88301 5 1.7768 0. -1
</event>
<event>
 4 80 1 -1 -1 -1
 11 -1 0 0 0 0 0 0 4.99991 4.99991 0 0. 9.
 -11 -1 0 0 0 0 0 0 -4.99942 4.99942 0 0. 9.
 15 1 1 2 0 0 3.23188 1.63232 -2.95431 4.99952 1.7768 0. -1
 -15 1 1 2 0 0 -3.23188 -1.63232 2.9548 4.99981 1.7768 0. 1
</event>
<event>
 4 80 1 -1 -1 -1
 11 -1 0 0 0 0 0 0 5 5 0 0. 9.
 -11 -1 0 0 0 0 0 0 -5 5 0 0. 9.
 15 1 1 2 0 0 -2.92567 -3.33449 1.47102 5 1.7768 0. -1
 -15 1 1 2 0 0 2.92567 3.33449 -1.47102 5 1.7768 0. 1
</event>
<event>
 4 80 1 -1 -1 -1
 11 -1 0 0 0 0 0 0 5 5 0 0. 9.
 -11 -1 0 0 0 0 0 0 -4.99763 4.99763 0 0. 9.
 15 1 1 2 0 0 -1.4442 -3.16954 -3.1131 4.99808 1.7768 0. -1
 -15 1 1 2 0 0 1.4442 3.16954 3.11547 4.99955 1.7768 0. 1
</event>
<event>
 4 80 1 -1 -1 -1
 11 -1 0 0 0 0 0 0 4.96995 4.96995 0 0. 9.
 -11 -1 0 0 0 0 0 0 -4.98399 4.98399 0 0. 9.
 15 1 1 2 0 0 -3.26029 2.62534 -2.02955 4.97983 1.7768 0. 1
 -15 1 1 2 0 0 3.26029 -2.62534 2.01551 4.97412 1.7768 0. -1
</event>
<event>
 4 80 1 -1 -1 -1
 11 -1 0 0 0 0 0 0 4.96963 4.96963 0 0. 9.
 -11 -1 0 0 0 0 0 0 -2.37209 2.37209 0 0. 9.
 15 1 1 2 0 0 -2.8501 0.552268 1.77998 3.84111 1.7768 0. -1
 -15 1 1 2 0 0 2.8501 -0.552268 0.81756 3.5006 1.7768 0. 1
</event>
<event>
 4 80 1 -1 -1 -1
 11 -1 0 0 0 0 0 0 4.92168 4.92168 0 0. 9.
 -11 -1 0 0 0 0 0 0 -4.9999 4.9999 0 0. 9.
 15 1 1 2 0 0 0.896416 0.239005 4.4986 4.92502 1.7768 0. -1
 -15 1 1 2 0 0 -0.896416 -0.239005 -4.57681 4.99656 1.7768 0. 1
</event>
<event>
 4 80 1 -1 -1 -1
 11 -1 0 0 0 0 0 0 5 5 0 0. 9.
 -11 -1 0 0 0 0 0 0 -5 5 0 0. 9.
 15 1 1 2 0 0 2.87215 0.164195 3.68322 5 1.7768 0. 1
 -15 1 1 2 0 0 -2.87215 -0.164195 -3.68322 5 1.7768 0. -1
</event>
<event>
 4 80 1 -1 -1 -1
 11 -1 0 0 0 0 0 0 1.8183 1.8183 0 0. 9.
 -11 -1 0 0 0 0 0 0 -3.26972 3.26972 0 0. 9.
 15 1 1 2 0 0 0.198502 -0.796128 0.791416 2.11123 1.7768 0. 1
 -15 1 1 2 0 0 -0.198502 0.796128 -2.24284 2.97679 1.7768 0. -1
</event>
<event>
 4 80 1 -1 -1 -1
 11 -1 0 0 0 0 0 0 1.51364 1.51364 0 0. 9.
 -11 -1 0 0 0 0 0 0 -5 5 0 0. 9.
 15 1 1 2 0 0 -0.275534 -0.207716 -4.19561 4.56946 1.7768 0. -1
 -15 1 1 2 0 0 0.275534 0.207716 0.709248 1.94418 1.7768 0. 1
</event>
<event>
 4 80 1 -1 -1 -1
 11 -1 0 0 0 0 0 0 4.99992 4.99992 0 0. 9.
 -11 -1 0 0 0 0 0 0 -5 5 0 0. 9.
 15 1 1 2 0 0 -3.04008 3.05688 1.80419 4.99995 1.7768 0. -1
 -15 1 1 2 0 0 3.04008 -3.05688 -1.80427 4.99998 1.7768 0. 1
</event>
<event>
 4 80 1 -1 -1 -1
 11 -1 0 0 0 0 0 0 5 5 0 0. 9.
 -11 -1 0 0 0 0 0 0 -5 5 0 0. 9.
 15 1 1 2 0 0 1.52913 -4.40966 0.24275 5 1.7768 0. -1
 -15 1 1 2 0 0 -1.52913 4.40966 -0.24275 5 1.7768 0. 1
</event>
<event>
 4 80 1 -1 -1 -1
 11 -1 0 0 0 0 0 0 4.98825 4.98825 0 0. 9.
 -11 -1 0 0 0 0 0 0 -0.634188 0.634188 0 0. 9.
 15 1 1 2 0 0 -0.0460012 0.0354722 2.09983 2.75143 1.7768 0. 1
 -15 1 1 2 0 0 0.0460012 -0.0354722 2.25424 2.87101 1.7768 0. -1
</event>
<event>
 4 80 1 -1 -1 -1
 11 -1 0 0 0 0 0 0 4.99748 4.99748 0 0. 9.
 -11 -1 0 0 0 0 0 0 -5 5 0 0. 9.
 15 1 1 2 0 0 -1.67186 -0.335208 4.3487 4.99764 1.7768 0. 1
 -15 1 1 2 0 0 1.67186 0.335208 -4.35123 4.99984 1.7768 0. -1
</event>
<event>
 4 80 1 -1 -1 -1
 11 -1 0 0 0 0 0 0 4.9977 4.9977 0 0. 9.
 -11 -1 0 0 0 0 0 0 -2.57312 2.57312 0 0. 9.
 15 1 1 2 0 0 -1.45467 1.01504 3.91502 4.65097 1.7768 0. 1
 -15 1 1 2 0 0 1.45467 -1.01504 -1.49043 2.91985 1.7768 0. -1
</event>
<event>
 4 80 1 -1 -1 -1
 11 -1 0 0 0 0 0 0 4.99961 4.99961 0 0. 9.
 -11 -1 0 0 0 0 0 0 -4.99573 4.99573 0 0. 9.
 15 1 1 2 0 0 -0.686951 1.58896 -4.33652 4.99598 1.7768 0. 1
 -15 1 1 2 0 0 0.686951 -1.58896 4.3404 4.99935 1.7768 0. -1
</event>
<event>
 4 80 1 -1 -1 -1
 11 -1 0 0 0 0 0 0 4.99994 4.99994 0 0. 9.
 -11 -1 0 0 0 0 0 0 -5 5 0 0. 9.
 15 1 1 2 0 0 -4.23571 -0.297078 -1.95257 4.99998 1.7768 0. 1
 -15 1 1 2 0 0 4.23571 0.297078 1.95251 4.99996 1.7768 0. -1
</event>
<event>
 4 80 1 -1 -1 -1
 11 -1 0 0 0 0 0 0 5 5 0 0. 9.
 -11 -1 0 0 0 0 0 0 -4.86975 4.86975 0 0. 9.
 15 1 1 2 0 0 0.557841 3.68641 2.7654 4.97051 1.7768 0. 1
 -15 1 1 2 0 0 -0.557841 -3.68641 -2.63514 4.89924 1.7768 0. -1
</event>
<event>
 4 80 1 -1 -1 -1
 11 -1 0 0 0 0 0 0 3.73095 3.73095 0 0. 9.
 -11 -1 0 0 0 0 0 0 -4.99951 4.99951 0 0. 9.
 15 1 1 2 0 0 1.08001 3.76082 -1.06902 4.4284 1.7768 0. 1
 -15 1 1 2 0 0 -1.08001 -3.76082 -0.199543 4.30206 1.7768 0. -1
</event>
<event>
 4 80 1 -1 -1 -1
 11 -1 0 0 0 0 0 0 0.971887 0.971887 0 0. 9.
 -11 -1 0 0 0 0 0 0 -5 5 0 0. 9.
 15 1 1 2 0 0 -0.0457749 -0.790814 -0.610157 2.039 1.7768 0. -1
 -15 1 1 2 0 0 0.0457749 0.790814 -3.41796 3.93289 1.7768 0. 1
</event>
<event>
 4 80 1 -1 -1 -1
 11 -1 0 0 0 0 0 0 5 5 0 0. 9.
 -11 -1 0 0 0 0 0 0 -3.77547 3.77547 0 0. 9.
 15 1 1 2 0 0 2.11482 0.913868 -2.64638 3.93303 1.7768 0. 1
 -15 1 1 2 0 0 -2.11482 -0.913868 3.87091 4.84245 1.7768 0. -1
</event>
<event>
 4 80 1 -1 -1 -1
 11 -1 0 0 0 0 0 0 5 5 0 0. 9.
 -11 -1 0 0 0 0 0 0 -5 5 0 0. 9.
 15 1 1 2 0 0 2.05468 -4.19558 0.133029 5 1.7768 0. 1
 -15 1 1 2 0 0 -2.05468 4.19558 -0.133029 5 1.7768 0. -1
</event>
<event>
 4 80 1 -1 -1 -1
 11 -1 0 0 0 0 0 0 4.99663 4.99663 0 0. 9.
 -11 -1 0 0 0 0 0 0 -5 5 0 0. 9.
 15 1 1 2 0 0 1.89213 2.16905 3.67806 4.99708 1.7768 0. -1
 -15 1 1 2 0 0 -1.89213 -2.16905 -3.68142 4.99955 1.7768 0. 1
</event>
<event>
 4 80 1 -1 -1 -1
 11 -1 0 0 0 0 0 0 5 5 0 0. 9.
 -11 -1 0 0 0 0 0 0 -4.98622 4.98622 0 0. 9.
 15 1 1 2 0 0 -0.482138 2.52534 3.90093 4.99848 1.7768 0. -1
 -15 1 1 2 0 0 0.482138 -2.52534 -3.88715 4.98773 1.7768 0. 1
</event>
<event>
 4 80 1 -1 -1 -1
 11 -1 0 0 0 0 0 0 5 5 0 0. 9.
 -11 -1 0 0 0 0 0 0 -4.55406 4.55406 0 0. 9.
 15 1 1 2 0 0 2.32407 -1.70049 -3.14517 4.61982 1.7768 0. 1
 -15 1 1 2 0 0 -2.32407 1.70049 3.59111 4.93424 1.7768 0. -1
</event>
<event>
 4 80 1 -1 -1 -1
 11 -1 0 0 0 0 0 0 4.92244 4.92244 0 0. 9.
 -11 -1 0 0 0 0 0 0 -1.77237 1.77237 0 0. 9.
 15 1 1 2 0 0 -0.367315 0.690256 -0.947719 2.16039 1.7768 0. 1
 -15 1 1 2 0 0 0.367315 -0.690256 4.09778 4.53442 1.7768 0. -1
</event>
<event>
 4 80 1 -1 -1 -1
 11 -1 0 0 0 0 0 0 5 5 0 0. 9.
 -11 -1 0 0 0 0 0 0 -5 5 0 0. 9.
 15 1 1 2 0 0 -0.636004 2.2904 -4.02391 5 1.7768 0. 1
 -15 1 1 2 0 0 0.636004 -2.2904 4.02391 5 1.7768 0. -1
</event>
<event>
 4 80 1 -1 -1 -1
 11 -1 0 0 0 0 0 0 2.39266 2.39266 0 0. 9.
 -11 -1 0 0 0 0 0 0 -5 5 0 0. 9.
 15 1 1 2 0 0 -2.50422 0.991958 -2.63436 4.16565 1.7768 0. -1
 -15 1 1 2 0 0 2.50422 -0.991958 0.0270177 3.227 1.7768 0. 1
</event>
<event>
 4 80 1 -1 -1 -1
 11 -1 0 0 0 0 0 0 5 5 0 0. 9.
 -11 -1 0 0 0 0 0 0 -5 5 0 0. 9.
 15 1 1 2 0 0 2.11246 -1.74194 3.78754 5 1.7768 0. -1
 -15 1 1 2 0 0 -2.11246 1.74194 -3.78754 5 1.7768 0. 1
</event>
<event>
 4 80 1 -1 -1 -1
 11 -1 0 0 0 0 0 0 5 5 0 0. 9.
 -11 -1 0 0 0 0 0 0 -5 5 0 0. 9.
 15 1 1 2 0 0 -1.00107 -0.656193 -4.51769 5 1.7768 0. -1
 -15 1 1 2 0 0 1.00107 0.656193 4.51769 5 1.7768 0. 1
</event>
<event>
 4 80 1 -1 -1 -1
 11 -1 0 0 0 0 0 0 4.71087 4.71087 0 0. 9.
 -11 -1 0 0 0 0 0 0 -5 5 0 0. 9.
 15 1 1 2 0 0 3.93992 -2.08222 0.589247 4.83359 1.7768 0. 1
 -15 1 1 2 0 0 -3.93992 2.08222 -0.878376 4.87728 1.7768 0. -1
</event>
<event>
 4 80 1 -1 -1 -1
 11 -1 0 0 0 0 0 0 5 5 0 0. 9.
 -11 -1 0 0 0 0 0 0 -5 5 0 0. 9.
 15 1 1 2 0 0 2.93835 2.04279 3.0059 5 1.7768 0. 1
 -15 1 1 2 0 0 -2.93835 -2.04279 -3.0059 5 1.7768 0. -1
</event>
<event>
 4 80 1 -1 -1 -1
 11 -1 0 0 0 0 0 0 5 5 0 0. 9.
 -11 -1 0 0 0 0 0 0 -5 5 0 0. 9.
 15 1 1 2 0 0 -3.31393 0.694605 3.22144 5 1.7768 0. 1
 -15 1 1 2 0 0 3.31393 -0.694605 -3.22144 5 1.7768 0. -1
</event>
<event>
 4 80 1 -1 -1 -1
 11 -1 0 0 0 0 0 0 4.99998 4.99998 0 0. 9.
 -11 -1 0 0 0 0 0 0 -0.746404 0.746404 0 0. 9.
 15 1 1 2 0 0 -0.0298509 0.22023 3.2043 3.67079 1.7768 0. -1
 -15 1 1 2 0 0 0.0298509 -0.22023 1.04927 2.07559 1.7768 0. 1
</event>
<event>
 4 80 1 -1 -1 -1
 11 -1 0 0 0 0 0 0 5 5 0 0. 9.
 -11 -1 0 0 0 0 0 0 -5 5 0 0. 9.
 15 1 1 2 0 0 2.8426 -3.35255 -1.58817 5 1.7768 0. 1
 -15 1 1 2 0 0 -2.8426 3.35255 1.58817 5 1.7768 0. -1
</event>
<event>
 4 80 1 -1 -1 -1
 11 -1 0 0 0 0 0 0 5 5 0 0. 9.
 -11 -1 0 0 0 0 0 0 -4.99939 4.99939 0 0. 9.
 15 1 1 2 0 0 -0.773064 -4.52431 -0.878449 4.99964 1.7768 0. -1
 -15 1 1 2 0 0 0.773064 4.52431 0.879055 4.99975 1.7768 0. 1
</event>
<event>
 4 80 1 -1 -1 -1
 11 -1 0 0 0 0 0 0 4.99669 4.99669 0 0. 9.
 -11 -1 0 0 0 0 0 0 -4.99999 4.99999 0 0. 9.
 15 1 1 2 0 0 -3.47367 -0.92726 -2.98485 4.99933 1.7768 0. 1
 -15 1 1 2 0 0 3.47367 0.92726 2.98155 4.99735 1.7768 0. -1
</event>
<event>
 4 80 1 -1 -1 -1
 11 -1 0 0 0 0 0 0 5 5 0 0. 9.
 -11 -1 0 0 0 0 0 0 -4.87432 4.87432 0 0. 9.
 15 1 1 2 0 0 -0.936961 4.47179 0.645171 4.94457 1.7768 0. 1
 -15 1 1 2 0 0 0.936961 -4.47179 -0.519491 4.92975 1.7768 0. -1
</event>
<event>
 4 80 1 -1 -1 -1
 11 -1 0 0 0 0 0 0 5 5 0 0. 9.
 -11 -1 0 0 0 0 0 0 -4.99996 4.99996 0 0. 9.
 15 1 1 2 0 0 -0.448713 3.21284 -3.36426 4.99997 1.7768 0. -1
 -15 1 1 2 0 0 0.448713 -3.21284 3.3643 4.99999 1.7768 0. 1
</event>
<event>
 4 80 1 -1 -1 -1
 11 -1 0 0 0 0 0 0 5 5 0 0. 9.
 -11 -1 0 0 0 0 0 0 -5 5 0 0. 9.
 15 1 1 2 0 0 0.510365 3.65429 2.86844 5 1.7768 0. 1
 -15 1 1 2 0 0 -0.510365 -3.65429 -2.86844 5 1.7768 0. -1
</event>
<event>
 4 80 1 -1 -1 -1
 11 -1 0 0 0 0 0 0 4.99989 4.99989 0 0. 9.
 -11 -1 0 0 0 0 0 0 -5 5 0 0. 9.
 15 1 1 2 0 0 -2.65782 0.26319 -3.83521 4.99999 1.7768 0. -1
 -15 1 1 2 0 0 2.65782 -0.26319 3.8351 4.9999 1.7768 0. 1
</event>
<event>
 4 80 1 -1 -1 -1
 11 -1 0 0 0 0 0 0 1.78537 1.78537 0 0. 9.
 -11 -1 0 0 0 0 0 0 -4.99864 4.99864 0 0. 9.
 15 1 1 2 0 0 0.482535 0.187619 -4.26917 4.65313 1.7768 0. 1
 -15 1 1 2 0 0 -0.482535 -0.187619 1.0559 2.13089 1.7768 0. -1
</event>
<event>
 4 80 1 -1 -1 -1
 11 -1 0 0 0 0 0 0 5 5 0 0. 9.
 -11 -1 0 0 0 0 0 0 -4.99812 4.99812 0 0. 9.
 15 1 1 2 0 0 4.35321 0.394134 1.65232 4.99937 1.7768 0. -1
 -15 1 1 2 0 0 -4.35321 -0.394134 -1.65045 4.99875 1.7768 0. 1
</event>
<event>
 4 80 1 -1 -1 -1
 11 -1 0 0 0 0 0 0 5 5 0 0. 9.
 -11 -1 0 0 0 0 0 0 -4.99982 4.99982 0 0. 9.
 15 1 1 2 0 0 4.57719 -0.94239 0.050821 4.99991 1.7768 0. -1
 -15 1 1 2 0 0 -4.57719 0.94239 -0.0506366 4.99991 1.7768 0. 1
</event>
<event>
 4 80 1 -1 -1 -1
 11 -1 0 0 0 0 0 0 5 5 0 0. 9.
 -11 -1 0 0 0 0 0 0 -5 5 0 0. 9.
 15 1 1 2 0 0 0.758521 -0.60816 4.57133 5 1.7768 0. -1
 -15 1 1 2 0 0 -0.758521 0.60816 -4.57133 5 1.7768 0. 1
</event>
<event>
 4 80 1 -1 -1 -1
 11 -1 0 0 0 0 0 0 5 5 0 0. 9.
 -11 -1 0 0 0 0 0 0 -5 5 0 0. 9.
 15 1 1 2 0 0 4.21699 1.07871 -1.70165 5 1.7768 0. -1
 -15 1 1 2 0 0 -4.21699 -1.07871 1.70165 5 1.7768 0. 1
</event>
<event>
 4 80 1 -1 -1 -1
 11 -1 0 0 0 0 0 0 5 5 0 0. 9.
 -11 -1 0 0 0 0 0 0 -5 5 0 0. 9.
 15 1 1 2 0 0 2.42496 1.39444 3.74398 5 1.7768 0. 1
 -15 1 1 2 0 0 -2.42496 -1.39444 -3.74398 5 1.7768 0. -1
</event>
<event>
 4 80 1 -1 -1 -1
 11 -1 0 0 0 0 0 0 4.90919 4.90919 0 0. 9.
 -11 -1 0 0 0 0 0 0 -5 5 0 0. 9.
 15 1 1 2 0 0 -4.05335 -2.22677 -0.0347339 4.9545 1.7768 0. -1
 -15 1 1 2 0 0 4.05335 2.22677 -0.0560757 4.95469 1.7768 0. 1
</event>
<event>
 4 80 1 -1 -1 -1
 11 -1 0 0 0 0 0 0 5 5 0 0. 9.
 -11 -1 0 0 0 0 0 0 -5 5 0 0. 9.
 15 1 1 2 0 0 -2.32125 -0.67191 4.00033 5 1.7768 0. -1
 -15 1 1 2 0 0 2.32125 0.67191 -4.00033 5 1.7768 0. 1
</event>
<event>
 4 80 1 -1 -1 -1
 11 -1 0 0 0 0 0 0 4.98749 4.98749 0 0. 9.
 -11 -1 0 0 0 0 0 0 -3.46529 3.46529 0 0. 9.
 15 1 1 2 0 0 -1.71207 -3.33888 0.979229 4.26567 1.7768 0. 1
 -15 1 1 2 0 0 1.71207 3.33888 0.54297 4.18711 1.7768 0. -1
</event>
<event>
 4 80 1 -1 -1 -1
 11 -1 0 0 0 0 0 0 5 5 0 0. 9.
 -11 -1 0 0 0 0 0 0 -5 5 0 0. 9.
 15 1 1 2 0 0 -2.68223 -1.64074 3.45773 5 1.7768 0. 1
 -15 1 1 2 0 0 2.68223 1.64074 -3.45773 5 1.7768 0. -1
</event>
<event>
 4 80 1 -1 -1 -1
 11 -1 0 0 0 0 0 0 5 5 0 0. 9.
 -11 -1 0 0 0 0 0 0 -4.99999 4.99999 0 0. 9.
 15 1 1 2 0 0 1.43108 -0.866842 -4.3638 4.99999 1.7768 0. 1
 -15 1 1 2 0 0 -1.43108 0.866842 4.36381 5 1.7768 0. -1
</event>
<event>
 4 80 1 -1 -1 -1
 11 -1 0 0 0 0 0 0 4.64576 4.64576 0 0. 9.
 -11 -1 0 0 0 0 0 0 -5 5 0 0. 9.
 15 1 1 2 0 0 -1.82323 -3.21188 2.36047 4.72968 1.7768 0. 1
 -15 1 1 2 0 0 1.82323 3.21188 -2.71472 4.91607 1.7768 0. -1
</event>
<event>
 4 80 1 -1 -1 -1
 11 -1 0 0 0 0 0 0 4.77873 4.77873 0 0. 9.
 -11 -1 0 0 0 0 0 0 -5 5 0 0. 9.
 15 1 1 2 0 0 -0.925978 3.55157 -2.80667 4.95037 1.7768 0. -1
 -15 1 1 2 0 0 0.925978 -3.55157 2.5854 4.82836 1.7768 0. 1
</event>
<event>
 4 80 1 -1 -1 -1
 11 -1 0 0 0 0 0 0 5 5 0 0. 9.
 -11 -1 0 0 0 0 0 0 -4.98088 4.98088 0 0. 9.
 15 1 1 2 0 0 -1.71572 -2.27403 -3.68257 4.98337 1.7768 0. -1
 -15 1 1 2 0 0 1.71572 2.27403 3.70169 4.99751 1.7768 0. 1
</event>
<event>
 4 80 1 -1 -1 -1
 11 -1 0 0 0 0 0 0 5 5 0 0. 9.
 -11 -1 0 0 0 0 0 0 -5 5 0 0. 9.
 15 1 1 2 0 0 1.34399 0.670785 -4.42561 5 1.7768 0. -1
 -15 1 1 2 0 0 -1.34399 -0.670785 4.42561 5 1.7768 0. 1
</event>
<event>
 4 80 1 -1 -1 -1
 11 -1 0 0 0 0 0 0 4.80435 4.80435 0 0. 9.
 -11 -1 0 0 0 0 0 0 -4.99999 4.99999 0 0. 9.
 15 1 1 2 0 0 2.06818 1.12028 -4.01416 4.98032 1.7768 0. -1
 -15 1 1 2 0 0 -2.06818 -1.12028 3.81851 4.82402 1.7768 0. 1
</event>
<event>
 4 80 1 -1 -1 -1
 11 -1 0 0 0 0 0 0 2.184 2.184 0 0. 9.
 -11 -1 0 0 0 0 0 0 -5 5 0 0. 9.
 15 1 1 2 0 0 0.315313 2.39281 -2.92095 4.18505 1.7768 0. -1
 -15 1 1 2 0 0 -0.315313 -2.39281 0.104949 2.99895 1.7768 0. 1
</event>
<event>
 4 80 1 -1 -1 -1
 11 -1 0 0 0 0 0 0 1.53496 1.53496 0 0. 9.
 -11 -1 0 0 0 0 0 0 -4.35553 4.35553 0 0. 9.
 15 1 1 2 0 0 0.278487 0.368617 0.663457 1.95226 1.7768 0. -1
 -15 1 1 2 0 0 -0.278487 -0.368617 -3.48402 3.93822 1.7768 0. 1
</event>
<event>
 4 80 1 -1 -1 -1
 11 -1 0 0 0 0 0 0 4.99578 4.99578 0 0. 9.
 -11 -1 0 0 0 0 0 0 -4.99748 4.99748 0 0. 9.
 15 1 1 2 0 0 0.515405 0.237194 4.63453 4.99585 1.7768 0. -1
 -15 1 1 2 0 0 -0.515405 -0.237194 -4.63622 4.99742 1.7768 0. 1
</event>
<event>
 4 80 1 -1 -1 -1
 11 -1 0 0 0 0 0 0 4.99976 4.99976 0 0. 9.
 -11 -1 0 0 0 0 0 0 -4.11409 4.11409 0 0. 9.
 15 1 1 2 0 0 2.69368 -0.580859 3.59118 4.86288 1.7768 0. -1
 -15 1 1 2 0 0 -2.69368 0.580859 -2.7055 4.25097 1.7768 0. 1
</event>
<event>
 4 80 1 -1 -1 -1
 11 -1 0 0 0 0 0 0 4.93007 4.93007 0 0. 9.
 -11 -1 0 0 0 0 0 0 -4.99995 4.99995 0 0. 9.
 15 1 1 2 0 0 -0.171999 1.69474 4.27686 4.93467 1.7768 0. 1
 -15 1 1 2 0 0 0.171999 -1.69474 -4.34673 4.99535 1.7768 0. -1
</event>
<event>
 4 80 1 -1 -1 -1
 11 -1 0 0 0 0 0 0 5 5 0 0. 9.
 -11 -1 0 0 0 0 0 0 -4.93075 4.93075 0 0. 9.
 15 1 1 2 0 0 -1.28811 4.03666 -1.84748 4.95225 1.7768 0. -1
 -15 1 1 2 0 0 1.28811 -4.03666 1.91673 4.9785 1.7768 0. 1
</event>
<event>
 4 80 1 -1 -1 -1
 11 -1 0 0 0 0 0 0 5 5 0 0. 9.
 -11 -1 0 0 0 0 0 0 -4.99978 4.99978 0 0. 9.
 15 1 1 2 0 0 -4.58309 -0.845255 -0.349163 4.99988 1.7768 0. -1
 -15 1 1 2 0 0 4.58309 0.845255 0.349379 4.9999 1.7768 0. 1
</event>
<event>
 4 80 1 -1 -1 -1
 11 -1 0 0 0 0 0 0 5 5 0 0. 9.
 -11 -1 0 0 0 0 0 0 -4.59644 4.59644 0 0. 9.
 15 1 1 2 0 0 -0.901225 -4.35645 0.0182584 4.7905 1.7768 0. 1
 -15 1 1 2 0 0 0.901225 4.35645 0.385306 4.80593 1.7768 0. -1
</event>
<event>
 4 80 1 -1 -1 -1
 11 -1 0 0 0 0 0 0 4.92805 4.92805 0 0. 9.
 -11 -1 0 0 0 0 0 0 -5 5 0 0. 9.
 15 1 1 2 0 0 4.12591 -0.49385 -2.08919 4.9789 1.7768 0. 1
 -15 1 1 2 0 0 -4.12591 0.49385 2.01724 4.94915 1.7768 0. -1
</event>
<event>
 4 80 1 -1 -1 -1
 11 -1 0 0 0 0 0 0 4.99976 4.99976 0 0. 9.
 -11 -1 0 0 0 0 0 0 -5 5 0 0. 9.
 15 1 1 2 0 0 3.77553 2.03287 -1.85859 4.99993 1.7768 0. -1
 -15 1 1 2 0 0 -3.77553 -2.03287 1.85835 4.99984 1.7768 0. 1
</event>
<event>
 4 80 1 -1 -1 -1
 11 -1 0 0 0 0 0 0 3.917 3.917 0 0. 9.
 -11 -1 0 0 0 0 0 0 -4.9704 4.9704 0 0. 9.
 15 1 1 2 0 0 3.58387 0.409808 -2.356 4.66053 1.7768 0. -1
 -15 1 1 2 0 0 -3.58387 -0.409808 1.3026 4.22688 1.7768 0. 1
</event>
<event>
 4 80 1 -1 -1 -1
 11 -1 0 0 0 0 0 0 4.91978 4.91978 0 0. 9.
 -11 -1 0 0 0 0 0 0 -5 5 0 0. 9.
 15 1 1 2 0 0 -1.61249 -1.03079 -4.2567 4.99398 1.7768 0. 1
 -15 1 1 2 0 0 1.61249 1.03079 4.17649 4.92579 1.7768 0. -1
</event>
<event>
 4 80 1 -1 -1 -1
 11 -1 0 0 0 0 0 0 5 5 0 0. 9.
 -11 -1 0 0 0 0 0 0 -5 5 0 0. 9.
 15 1 1 2 0 0 3.76934 -0.887877 -2.61649 5 1.7768 0. 1
 -15 1 1 2 0 0 -3.76934 0.887877 2.61649 5 1.7768 0. -1
</event>
<event>
 4 80 1 -1 -1 -1
 11 -1 0 0 0 0 0 0 5 5 0 0. 9.
 -11 -1 0 0 0 0 0 0 -4.95616 4.95616 0 0. 9.
 15 1 1 2 0 0 0.51569 0.417701 -4.58059 4.95781 1.7768 0. 1
 -15 1 1 2 0 0 -0.51569 -0.417701 4.62443 4.99835 1.7768 0. -1
</event>
<event>
 4 80 1 -1 -1 -1
 11 -1 0 0 0 0 0 0 5 5 0 0. 9.
 -11 -1 0 0 0 0 0 0 -5 5 0 0. 9.
 15 1 1 2 0 0 -0.100357 -4.66708 0.224912 5 1.7768 0. -1
 -15 1 1 2 0 0 0.100357 4.66708 -0.224912 5 1.7768 0. 1
</event>
<event>
 4 80 1 -1 -1 -1
 11 -1 0 0 0 0 0 0 5 5 0 0. 9.
 -11 -1 0 0 0 0 0 0 -5 5 0 0. 9.
 15 1 1 2 0 0 3.172 0.366065 -3.41272 5 1.7768 0. -1
 -15 1 1 2 0 0 -3.172 -0.366065 3.41273 5 1.7768 0. 1
</event>
<event>
 4 80 1 -1 -1 -1
 11 -1 0 0 0 0 0 0 5 5 0 0. 9.
 -11 -1 0 0 0 0 0 0 -5 5 0 0. 9.
 15 1 1 2 0 0 3.09798 -3.2381 -1.32647 5 1.7768 0. 1
 -15 1 1 2 0 0 -3.09798 3.2381 1.32647 5 1.7768 0. -1
</event>
<event>
 4 80 1 -1 -1 -1
 11 -1 0 0 0 0 0 0 5 5 0 0. 9.
 -11 -1 0 0 0 0 0 0 -4.99971 4.99971 0 0. 9.
 15 1 1 2 0 0 -3.80519 0.554221 -2.65582 4.99978 1.7768 0. 1
 -15 1 1 2 0 0 3.80519 -0.554221 2.65611 4.99993 1.7768 0. -1
</event>
<event>
 4 80 1 -1 -1 -1
 11 -1 0 0 0 0 0 0 4.99999 4.99999 0 0. 9.
 -11 -1 0 0 0 0 0 0 -3.73471 3.73471 0 0. 9.
 15 1 1 2 0 0 2.52182 -1.10212 -2.21548 3.95478 1.7768 0. -1
 -15 1 1 2 0 0 -2.52182 1.10212 3.48075 4.77992 1.7768 0. 1
</event>
<event>
 4 80 1 -1 -1 -1
 11 -1 0 0 0 0 0 0 4.34355 4.34355 0 0. 9.
 -11 -1 0 0 0 0 0 0 -5 5 0 0. 9.
 15 1 1 2 0 0 2.17002 3.00965 -2.52294 4.82597 1.7768 0. 1
 -15 1 1 2 0 0 -2.17002 -3.00965 1.86649 4.51758 1.7768 0. -1
</event>
<event>
 4 80 1 -1 -1 -1
 11 -1 0 0 0 0 0 0 4.99059 4.99059 0 0. 9.
 -11 -1 0 0 0 0 0 0 -5 5 0 0. 9.
 15 1 1 2 0 0 0.679094 -4.47929 -1.13166 4.99635 1.7768 0. -1
 -15 1 1 2 0 0 -0.679094 4.47929 1.12225 4.99423 1.7768 0. 1
</event>
<event>
 4 80 1 -1 -1 -1
 11 -1 0 0 0 0 0 0 4.9989 4.9989 0 0. 9.
 -11 -1 0 0 0 0 0 0 -5 5 0 0. 9.
 15 1 1 2 0 0 3.84629 1.78114 1.96677 4.99923 1.7768 0. -1
 -15 1 1 2 0 0 -3.84629 -1.78114 -1.96787 4.99967 1.7768 0. 1
</event>
<event>
 4 80 1 -1 -1 -1
 11 -1 0 0 0 0 0 0 4.99647 4.99647 0 0. 9.
 -11 -1 0 0 0 0 0 0 -4.99992 4.99992 0 0. 9.
 15 1 1 2 0 0 0.75928 4.41304 -1.3332 4.99865 1.7768 0. 1
 -15 1 1 2 0 0 -0.75928 -4.41304 1.32975 4.99773 1.7768 0. -1
</event>
<event>
 4 80 1 -1 -1 -1
 11 -1 0 0 0 0 0 0 5 5 0 0. 9.
 -11 -1 0 0 0 0 0 0 -5 5 0 0. 9.
 15 1 1 2 0 0 2.14263 -0.602635 -4.10953 5 1.7768 0. 1
 -15 1 1 2 0 0 -2.14263 0.602635 4.10953 5 1.7768 0. -1
</event>
<event>
 4 80 1 -1 -1 -1
 11 -1 0 0 0 0 0 0 5 5 0 0. 9.
 -11 -1 0 0 0 0 0 0 -5 5 0 0. 9.
 15 1 1 2 0 0 -0.110115 -2.93319 -3.63683 5 1.7768 0. -1
 -15 1 1 2 0 0 0.110115 2.93319 3.63683 5 1.7768 0. 1
</event>
<event>
 4 80 1 -1 -1 -1
 11 -1 0 0 0 0 0 0 5 5 0 0. 9.
 -11 -1 0 0 0 0 0 0 -5 5 0 0. 9.
 15 1 1 2 0 0 -1.2872 -3.29951 -3.04936 5 1.7768 0. 1
 -15 1 1 2 0 0 1.2872 3.29951 3.04936 5 1.7768 0. -1
</event>
<event>
 4 80 1 -1 -1 -1
 11 -1 0 0 0 0 0 0 5 5 0 0. 9.
 -11 -1 0 0 0 0 0 0 -4.99818 4.99818 0 0. 9.
 15 1 1 2 0 0 2.1523 -2.15684 3.54334 4.99974 1.7768 0. -1
 -15 1 1 2 0 0 -2.1523 2.15684 -3.54153 4.99845 1.7768 0. 1
</event>
<event>
 4 80 1 -1 -1 -1
 11 -1 0 0 0 0 0 0 5 5 0 0. 9.
 -11 -1 0 0 0 0 0 0 -5 5 0 0. 9.
 15 1 1 2 0 0 3.1929 -2.31899 2.50399 5 1.7768 0. -1
 -15 1 1 2 0 0 -3.1929 2.31899 -2.50399 5 1.7768 0. 1
</event>
<event>
 4 80 1 -1 -1 -1
 11 -1 0 0 0 0 0 0 5 5 0 0. 9.
 -11 -1 0 0 0 0 0 0 -1.76618 1.76618 0 0. 9.
 15 1 1 2 0 0 -0.905747 -1.38552 -0.332824 2.45123 1.7768 0. -1
 -15 1 1 2 0 0 0.905747 1.38552 3.56665 4.31494 1.7768 0. 1
</event>
<event>
 4 80 1 -1 -1 -1
 11 -1 0 0 0 0 0 0 5 5 0 0. 9.
 -11 -1 0 0 0 0 0 0 -2.58408 2.58408 0 0. 9.
 15 1 1 2 0 0 -0.0218597 -1.43659 4.13505 4.72447 1.7768 0. -1
 -15 1 1 2 0 0 0.0218597 1.43659 -1.71913 2.85962 1.7768 0. 1
</event>
<event>
 4 80 1 -1 -1 -1
 11 -1 0 0 0 0 0 0 4.99695 4.99695 0 0. 9.
 -11 -1 0 0 0 0 0 0 -5 5 0 0. 9.
 15 1 1 2 0 0 -4.47024 -0.494718 -1.26615 4.99886 1.7768 0. 1
 -15 1 1 2 0 0 4.47024 0.494718 1.26311 4.99809 1.7768 0. -1
</event>
<event>
 4 80 1 -1 -1 -1
 11 -1 0 0 0 0 0 0 5 5 0 0. 9.
 -11 -1 0 0 0 0 0 0 -5 5 0 0. 9.
 15 1 1 2 0 0 0.648748 4.32419 -1.65009 5 1.7768 0. -1
 -15 1 1 2 0 0 -0.648748 -4.32419 1.65009 5 1.7768 0. 1
</event>
<event>
 4 80 1 -1 -1 -1
 11 -1 0 0 0 0 0 0 5 5 0 0. 9.
 -11 -1 0 0 0 0 0 0 -5 5 0 0. 9.
 15 1 1 2 0 0 0.479577 4.52332 -1.07323 5 1.7768 0. 1
 -15 1 1 2 0 0 -0.479577 -4.52332 1.07323 5 1.7768 0. -1
</event>
<event>
 4 80 1 -1 -1 -1
 11 -1 0 0 0 0 0 0 5 5 0 0. 9.
 -11 -1 0 0 0 0 0 0 -4.99981 4.99981 0 0. 9.
 15 1 1 2 0 0 0.950897 -3.28962 3.18059 4.99997 1.7768 0. 1
 -15 1 1 2 0 0 -0.950897 3.28962 -3.1804 4.99985 1.7768 0. -1
</event>
<event>
 4 80 1 -1 -1 -1
 11 -1 0 0 0 0 0 0 5 5 0 0. 9.
 -11 -1 0 0 0 0 0 0 -4.78056 4.78056 0 0. 9.
 15 1 1 2 0 0 -0.588236 1.59136 4.33768 4.98514 1.7768 0. -1
 -15 1 1 2 0 0 0.588236 -1.59136 -4.11824 4.79542 1.7768 0. 1
</event>
<event>
 4 80 1 -1 -1 -1
 11 -1 0 0 0 0 0 0 4.99382 4.99382 0 0. 9.
 -11 -1 0 0 0 0 0 0 -4.92587 4.92587 0 0. 9.
 15 1 1 2 0 0 2.07062 -1.13098 -3.95041 4.93255 1.7768 0. -1
 -15 1 1 2 0 0 -2.07062 1.13098 4.01837 4.98714 1.7768 0. 1
</event>
<event>
 4 80 1 -1 -1 -1
 11 -1 0 0 0 0 0 0 4.92642 4.92642 0 0. 9.
 -11 -1 0 0 0 0 0 0 -5 5 0 0. 9.
 15 1 1 2 0 0 0.451147 -1.93399 -4.22385 4.99425 1.7768 0. -1
 -15 1 1 2 0 0 -0.451147 1.93399 4.15028 4.93218 1.7768 0. 1
</event>
<event>
 4 80 1 -1 -1 -1
 11 -1 0 0 0 0 0 0 4.99937 4.99937 0 0. 9.
 -11 -1 0 0 0 0 0 0 -4.60415 4.60415 0 0. 9.
 15 1 1 2 0 0 -0.584191 -2.81873 -3.20727 4.66164 1.7768 0. -1
 -15 1 1 2 0 0 0.584191 2.81873 3.6025 4.94188 1.7768 0. 1
</event>
<event>
 4 80 1 -1 -1 -1
 11 -1 0 0 0 0 0 0 5 5 0 0. 9.
 -11 -1 0 0 0 0 0 0 -4.97969 4.97969 0 0. 9.
 15 1 1 2 0 0 -0.192735 0.894314 4.58223 4.99915 1.7768 0. -1
 -15 1 1 2 0 0 0.192735 -0.894314 -4.56192 4.98054 1.7768 0. 1
</event>
<event>
 4 80 1 -1 -1 -1
 11 -1 0 0 0 0 0 0 5 5 0 0. 9.
 -11 -1 0 0 0 0 0 0 -4.99896 4.99896 0 0. 9.
 15 1 1 2 0 0 4.33309 1.468 0.952579 4.99958 1.7768 0. -1
 -15 1 1 2 0 0 -4.33309 -1.468 -0.951542 4.99938 1.7768 0. 1
</event>
<event>
 4 80 1 -1 -1 -1
 11 -1 0 0 0 0 0 0 5 5 0 0. 9.
 -11 -1 0 0 0 0 0 0 -4.99992 4.99992 0 0. 9.
 15 1 1 2 0 0 -2.95761 -2.62721 2.48845 4.99998 1.7768 0. -1
 -15 1 1 2 0 0 2.95761 2.62721 -2.48837 4.99994 1.7768 0. 1
</event>
<event>
 4 80 1 -1 -1 -1
 11 -1 0 0 0 0 0 0 5 5 0 0. 9.
 -11 -1 0 0 0 0 0 0 -4.8446 4.8446 0 0. 9.
 15 1 1 2 0 0 3.32098 -3.10974 -0.527322 4.91275 1.7768 0. 1
 -15 1 1 2 0 0 -3.32098 3.10974 0.682717 4.93185 1.7768 0. -1
</event>
<event>
 4 80 1 -1 -1 -1
 11 -1 0 0 0 0 0 0 4.95427 4.95427 0 0. 9.
 -11 -1 0 0 0 0 0 0 -4.99995 4.99995 0 0. 9.
 15 1 1 2 0 0 2.84546 -0.56922 -3.65505 4.99377 1.7768 0. 1
 -15 1 1 2 0 0 -2.84546 0.56922 3.60938 4.96044 1.7768 0. -1
</event>
<event>
 4 80 1 -1 -1 -1
 11 -1 0 0 0 0 0 0 5 5 0 0. 9.
 -11 -1 0 0 0 0 0 0 -4.99585 4.99585 0 0. 9.
 15 1 1 2 0 0 0.98622 1.79092 -4.1981 4.99618 1.7768 0. -1
 -15 1 1 2 0 0 -0.98622 -1.79092 4.20225 4.99967 1.7768 0. 1
</event>
<event>
 4 80 1 -1 -1 -1
 11 -1 0 0 0 0 0 0 4.79302 4.79302 0 0. 9.
 -11 -1 0 0 0 0 0 0 -5 5 0 0. 9.
 15 1 1 2 0 0 -4.47388 0.764018 -0.559651 4.90615 1.7768 0. -1
 -15 1 1 2 0 0 4.47388 -0.764018 0.352667 4.88687 1.7768 0. 1
</event>
<event>
 4 80 1 -1 -1 -1
 11 -1 0 0 0 0 0 0 5 5 0 0. 9.
 -11 -1 0 0 0 0 0 0 -4.99999 4.99999 0 0. 9.
 15 1 1 2 0 0 -3.48189 1.64361 -2.64898 4.99999 1.7768 0. 1
 -15 1 1 2 0 0 3.48189 -1.64361 2.649 5 1.7768 0. -1
</event>
<event>
 4 80 1 -1 -1 -1
 11 -1 0 0 0 0 0 0 5 5 0 0. 9.
 -11 -1 0 0 0 0 0 0 -5 5 0 0. 9.
 15 1 1 2 0 0 -1.76331 0.371291 -4.31221 5 1.7768 0. 1
 -15 1 1 2 0 0 1.76331 -0.371291 4.31221 5 1.7768 0. -1
</event>
<event>
 4 80 1 -1 -1 -1
 11 -1 0 0 0 0 0 0 4.35819 4.35819 0 0. 9.
 -11 -1 0 0 0 0 0 0 -5 5 0 0. 9.
 15 1 1 2 0 0 -2.53123 3.29141 0.862041 4.59797 1.7768 0. 1
 -15 1 1 2 0 0 2.53123 -3.29141 -1.50385 4.76023 1.7768 0. -1
</event>
<event>
 4 80 1 -1 -1 -1
 11 -1 0 0 0 0 0 0 4.99998 4.99998 0 0. 9.
 -11 -1 0 0 0 0 0 0 -5 5 0 0. 9.
 15 1 1 2 0 0 -1.61366 1.94397 3.93182 4.99998 1.7768 0. -1
 -15 1 1 2 0 0 1.61366 -1.94397 -3.93184 5 1.7768 0. 1
</event>
<event>
 4 80 1 -1 -1 -1
 11 -1 0 0 0 0 0 0 4.99743 4.99743 0 0. 9.
 -11 -1 0 0 0 0 0 0 -5 5 0 0. 9.
 15 1 1 2 0 0 -0.786885 -3.1138 -3.39459 4.99959 1.7768 0. 1
 -15 1 1 2 0 0 0.786885 3.1138 3.39201 4.99784 1.7768 0. -1
</event>
<event>
 4 80 1 -1 -1 -1
 11 -1 0 0 0 0 0 0 5 5 0 0. 9.
 -11 -1 0 0 0 0 0 0 -4.71355 4.71355 0 0. 9.
 15 1 1 2 0 0 2.92761 -3.34934 0.931628 4.88002 1.7768 0. -1
 -15 1 1 2 0 0 -2.92761 3.34934 -0.645175 4.83352 1.7768 0. 1
</event>
<event>
 4 80 1 -1 -1 -1
 11 -1 0 0 0 0 0 0 5 5 0 0. 9.
 -11 -1 0 0 0 0 0 0 -4.99985 4.99985 0 0. 9.
 15 1 1 2 0 0 -2.00175 -3.41522 2.48419 4.99996 1.7768 0. -1
 -15 1 1 2 0 0 2.00175 3.41522 -2.48404 4.99989 1.7768 0. 1
</event>
<event>
 4 80 1 -1 -1 -1
 11 -1 0 0 0 0 0 0 5 5 0 0. 9.
 -11 -1 0 0 0 0 0 0 -4.99985 4.99985 0 0. 9.
 15 1 1 2 0 0 2.60429 -3.35928 -1.94272 4.9999 1.7768 0. 1
 -15 1 1 2 0 0 -2.60429 3.35928 1.94286 4.99995 1.7768 0. -1
</event>
<event>
 4 80 1 -1 -1 -1
 11 -1 0 0 0 0 0 0 4.86817 4.86817 0 0. 9.
 -11 -1 0 0 0 0 0 0 -5 5 0 0. 9.
 15 1 1 2 0 0 0.394639 0.953158 -4.55172 4.99401 1.7768 0. -1
 -15 1 1 2 0 0 -0.394639 -0.953158 4.41989 4.87416 1.7768 0. 1
</event>
<event>
 4 80 1 -1 -1 -1
 11 -1 0 0 0 0 0 0 5 5 0 0. 9.
 -11 -1 0 0 0 0 0 0 -4.99869 4.99869 0 0. 9.
 15 1 1 2 0 0 1.74821 1.74397 -3.96647 4.99883 1.7768 0. -1
 -15 1 1 2 0 0 -1.74821 -1.74397 3.96778 4.99987 1.7768 0. 1
</event>
<event>
 4 80 1 -1 -1 -1
 11 -1 0 0 0 0 0 0 4.99999 4.99999 0 0. 9.
 -11 -1 0 0 0 0 0 0 -4.90527 4.90527 0 0. 9.
 15 1 1 2 0 0 -1.33862 2.59757 -3.5346 4.91837 1.7768 0. -1
 -15 1 1 2 0 0 1.33862 -2.59757 3.62932 4.98688 1.7768 0. 1
</event>
<event>
 4 80 1 -1 -1 -1
 11 -1 0 0 0 0 0 0 5 5 0 0. 9.
 -11 -1 0 0 0 0 0 0 -5 5 0 0. 9.
 15 1 1 2 0 0 0.63385 -3.78434 2.6682 5 1.7768 0. 1
 -15 1 1 2 0 0 -0.63385 3.78434 -2.6682 5 1.7768 0. -1
</event>
<event>
 4 80 1 -1 -1 -1
 11 -1 0 0 0 0 0 0 2.02809 2.02809 0 0. 9.
 -11 -1 0 0 0 0 0 0 -3.97287 3.97287 0 0. 9.
 15 1 1 2 0 0 -1.91536 -1.02684 -1.41664 3.14445 1.7768 0. -1
 -15 1 1 2 0 0 1.91536 1.02684 -0.528144 2.85651 1.7768 0. 1
</event>
<event>
 4 80 1 -1 -1 -1
 11 -1 0 0 0 0 0 0 5 5 0 0. 9.
 -11 -1 0 0 0 0 0 0 -5 5 0 0. 9.
 15 1 1 2 0 0 3.58309 2.98431 0.312488 5 1.7768 0. 1
 -15 1 1 2 0 0 -3.58309 -2.98431 -0.312488 5 1.7768 0. -1
</event>
<event>
 4 80 1 -1 -1 -1
 11 -1 0 0 0 0 0 0 5 5 0 0. 9.
 -11 -1 0 0 0 0 0 0 -5 5 0 0. 9.
 15 1 1 2 0 0 0.803998 1.70901 -4.27494 5 1.7768 0. -1
 -15 1 1 2 0 0 -0.803998 -1.70901 4.27494 5 1.7768 0. 1
</event>
<event>
 4 80 1 -1 -1 -1
 11 -1 0 0 0 0 0 0 5 5 0 0. 9.
 -11 -1 0 0 0 0 0 0 -4.99256 4.99256 0 0. 9.
 15 1 1 2 0 0 0.138982 -1.17161 -4.51437 4.99292 1.7768 0. -1
 -15 1 1 2 0 0 -0.138982 1.17161 4.5218 4.99964 1.7768 0. 1
</event>
<event>
 4 80 1 -1 -1 -1
 11 -1 0 0 0 0 0 0 4.99999 4.99999 0 0. 9.
 -11 -1 0 0 0 0 0 0 -4.99994 4.99994 0 0. 9.
 15 1 1 2 0 0 0.602613 -2.8297 -3.67034 4.99995 1.7768 0. 1
 -15 1 1 2 0 0 -0.602613 2.8297 3.67039 4.99998 1.7768 0. -1
</event>
<event>
 4 80 1 -1 -1 -1
 11 -1 0 0 0 0 0 0 4.9999 4.9999 0 0. 9.
 -11 -1 0 0 0 0 0 0 -3.66675 3.66675 0 0. 9.
 15 1 1 2 0 0 -1.58978 -2.58488 3.13868 4.7136 1.7768 0. 1
 -15 1 1 2 0 0 1.58978 2.58488 -1.80553 3.95306 1.7768 0. -1
</event>
<event>
 4 80 1 -1 -1 -1
 11 -1 0 0 0 0 0 0 5 5 0 0. 9.
 -11 -1 0 0 0 0 0 0 -4.99952 4.99952 0 0. 9.
 15 1 1 2 0 0 -3.14702 -2.45468 2.43143 4.99988 1.7768 0. 1
 -15 1 1 2 0 0 3.14702 2.45468 -2.43095 4.99964 1.7768 0. -1
</event>
<event>
 4 80 1 -1 -1 -1
 11 -1 0 0 0 0 0 0 5 5 0 0. 9.
 -11 -1 0 0 0 0 0 0 -0.883351 0.883351 0 0. 9.
 15 1 1 2 0 0 0.842585 -0.185499 3.06249 3.6443 1.7768 0. 1
 -15 1 1 2 0 0 -0.842585 0.185499 1.05416 2.23905 1.7768 0. -1
</event>
<event>
 4 80 1 -1 -1 -1
 11 -1 0 0 0 0 0 0 4.99222 4.99222 0 0. 9.
 -11 -1 0 0 0 0 0 0 -4.73198 4.73198 0 0. 9.
 15 1 1 2 0 0 1.80106 3.92266 1.48497 4.89836 1.7768 0. 1
 -15 1 1 2 0 0 -1.80106 -3.92266 -1.22473 4.82584 1.7768 0. -1
</event>
<event>
 4 80 1 -1 -1 -1
 11 -1 0 0 0 0 0 0 1.16563 1.16563 0 0. 9.
 -11 -1 0 0 0 0 0 0 -4.9985 4.9985 0 0. 9.
 15 1 1 2 0 0 0.252704 0.368945 -3.92263 4.32952 1.7768 0. -1
 -15 1 1 2 0 0 -0.252704 -0.368945 0.0897626 1.8346 1.7768 0. 1
</event>
<event>
 4 80 1 -1 -1 -1
 11 -1 0 0 0 0 0 0 5 5 0 0. 9.
 -11 -1 0 0 0 0 0 0 -4.99995 4.99995 0 0. 9.
 15 1 1 2 0 0 0.934048 -3.62579 -2.79699 4.99996 1.7768 0. -1
 -15 1 1 2 0 0 -0.934048 3.62579 2.79703 4.99999 1.7768 0. 1
</event>
<event>
 4 80 1 -1 -1 -1
 11 -1 0 0 0 0 0 0 5 5 0 0. 9.
 -11 -1 0 0 0 0 0 0 -4.99998 4.99998 0 0. 9.
 15 1 1 2 0 0 -0.120691 -3.8602 2.63182 5 1.7768 0. -1
 -15 1 1 2 0 0 0.120691 3.8602 -2.6318 4.99998 1.7768 0. 1
</event>
<event>
 4 80 1 -1 -1 -1
 11 -1 0 0 0 0 0 0 5 5 0 0. 9.
 -11 -1 0 0 0 0 0 0 -5 5 0 0. 9.
 15 1 1 2 0 0 -0.303879 -3.11413 -3.47161 5 1.7768 0. -1
 -15 1 1 2 0 0 0.303879 3.11413 3.47161 5 1.7768 0. 1
</event>
<event>
 4 80 1 -1 -1 -1
 11 -1 0 0 0 0 0 0 2.93959 2.93959 0 0. 9.
 -11 -1 0 0 0 0 0 0 -5 5 0 0. 9.
 15 1 1 2 0 0 0.473813 2.36074 1.45118 3.32585 1.7768 0. -1
 -15 1 1 2 0 0 -0.473813 -2.36074 -3.51159 4.61374 1.7768 0. 1
</event>
<event>
 4 80 1 -1 -1 -1
 11 -1 0 0 0 0 0 0 4.99993 4.99993 0 0. 9.
 -11 -1 0 0 0 0 0 0 -5 5 0 0. 9.
 15 1 1 2 0 0 -2.1269 2.51796 -3.31336 4.99999 1.7768 0. 1
 -15 1 1 2 0 0 2.1269 -2.51796 3.31329 4.99994 1.7768 0. -1
</event>
<event>
 4 80 1 -1 -1 -1
 11 -1 0 0 0 0 0 0 1.83545 1.83545 0 0. 9.
 -11 -1 0 0 0 0 0 0 -5 5 0 0. 9.
 15 1 1 2 0 0 1.29957 -0.683785 0.635145 2.39115 1.7768 0. -1
 -15 1 1 2 0 0 -1.29957 0.683785 -3.79969 4.4443 1.7768 0. 1
</event>
<event>
 4 80 1 -1 -1 -1
 11 -1 0 0 0 0 0 0 5 5 0 0. 9.
 -11 -1 0 0 0 0 0 0 -4.99582 4.99582 0 0. 9.
 15 1 1 2 0 0 0.302521 -3.01232 3.55958 4.9994 1.7768 0. -1
 -15 1 1 2 0 0 -0.302521 3.01232 -3.5554 4.99642 1.7768 0. 1
</event>
<event>
 4 80 1 -1 -1 -1
 11 -1 0 0 0 0 0 0 5 5 0 0. 9.
 -11 -1 0 0 0 0 0 0 -4.99969 4.99969 0 0. 9.
 15 1 1 2 0 0 -3.72037 -2.23758 1.73013 4.9999 1.7768 0. -1
 -15 1 1 2 0 0 3.72037 2.23758 -1.72982 4.99979 1.7768 0. 1
</event>
<event>
 4 80 1 -1 -1 -1
 11 -1 0 0 0 0 0 0 5 5 0 0. 9.
 -11 -1 0 0 0 0 0 0 -5 5 0 0. 9.
 15 1 1 2 0 0 0.408165 -4.64149 -0.363609 5 1.7768 0. 1
 -15 1 1 2 0 0 -0.408165 4.64149 0.363609 5 1.7768 0. -1
</event>
<event>
 4 80 1 -1 -1 -1
 11 -1 0 0 0 0 0 0 5 5 0 0. 9.
 -11 -1 0 0 0 0 0 0 -4.99941 4.99941 0 0. 9.
 15 1 1 2 0 0 3.01433 1.04404 3.41543 4.99991 1.7768 0. 1
 -15 1 1 2 0 0 -3.01433 -1.04404 -3.41484 4.99951 1.7768 0. -1
</event>
<event>
 4 80 1 -1 -1 -1
 11 -1 0 0 0 0 0 0 3.36832 3.36832 0 0. 9.
 -11 -1 0 0 0 0 0 0 -5 5 0 0. 9.
 15 1 1 2 0 0 -2.06427 2.85879 0.324045 3.9619 1.7768 0. -1
 -15 1 1 2 0 0 2.06427 -2.85879 -1.95573 4.40642 1.7768 0. 1
</event>
<event>
 4 80 1 -1 -1 -1
 11 -1 0 0 0 0 0 0 5 5 0 0. 9.
 -11 -1 0 0 0 0 0 0 -1.658 1.658 0 0. 9.
 15 1 1 2 0 0 -0.147428 2.25898 1.57083 3.27872 1.7768 0. -1
 -15 1 1 2 0 0 0.147428 -2.25898 1.77118 3.37928 1.7768 0. 1
</event>
<event>
 4 80 1 -1 -1 -1
 11 -1 0 0 0 0 0 0 5 5 0 0. 9.
 -11 -1 0 0 0 0 0 0 -4.8914 4.8914 0 0. 9.
 15 1 1 2 0 0 1.99222 3.41063 -2.33287 4.91949 1.7768 0. 1
 -15 1 1 2 0 0 -1.99222 -3.41063 2.44148 4.97191 1.7768 0. -1
</event>
<event>
 4 80 1 -1 -1 -1
 11 -1 0 0 0 0 0 0 4.99985 4.99985 0 0. 9.
 -11 -1 0 0 0 0 0 0 -4.96506 4.96506 0 0. 9.
 15 1 1 2 0 0 1.55703 2.14167 -3.81091 4.96909 1.7768 0. 1
 -15 1 1 2 0 0 -1.55703 -2.14167 3.8457 4.99582 1.7768 0. -1
</event>
<event>
 4 80 1 -1 -1 -1
 11 -1 0 0 0 0 0 0 5 5 0 0. 9.
 -11 -1 0 0 0 0 0 0 -5 5 0 0. 9.
 15 1 1 2 0 0 -3.51553 0.768652 -2.98203 5 1.7768 0. -1
 -15 1 1 2 0 0 3.51553 -0.768652 2.98203 5 1.7768 0. 1
</event>
<event>
 4 80 1 -1 -1 -1
 11 -1 0 0 0 0 0 0 5 5 0 0. 9.
 -11 -1 0 0 0 0 0 0 -5 5 0 0. 9.
 15 1 1 2 0 0 1.18078 -3.45932 2.91224 5 1.7768 0. 1
 -15 1 1 2 0 0 -1.18078 3.45932 -2.91224 5 1.7768 0. -1
</event>
<event>
 4 80 1 -1 -1 -1
 11 -1 0 0 0 0 0 0 5 5 0 0. 9.
 -11 -1 0 0 0 0 0 0 -4.76578 4.76578 0 0. 9.
 15 1 1 2 0 0 -1.5356 1.21029 4.22296 4.98136 1.7768 0. -1
 -15 1 1 2 0 0 1.5356 -1.21029 -3.98874 4.78441 1.7768 0. 1
</event>
<event>
 4 80 1 -1 -1 -1
 11 -1 0 0 0 0 0 0 4.95437 4.95437 0 0. 9.
 -11 -1 0 0 0 0 0 0 -5 5 0 0. 9.
 15 1 1 2 0 0 -0.37426 -4.56014 0.801293 4.97341 1.7768 0. -1
 -15 1 1 2 0 0 0.37426 4.56014 -0.846921 4.98096 1.7768 0. 1
</event>
<event>
 4 80 1 -1 -1 -1
 11 -1 0 0 0 0 0 0 4.99998 4.99998 0 0. 9.
 -11 -1 0 0 0 0 0 0 -5 5 0 0. 9.
 15 1 1 2 0 0 3.6541 1.214 -2.64877 5 1.7768 0. 1
 -15 1 1 2 0 0 -3.6541 -1.214 2.64875 4.99999 1.7768 0. -1
</event>
<event>
 4 80 1 -1 -1 -1
 11 -1 0 0 0 0 0 0 4.99999 4.99999 0 0. 9.
 -11 -1 0 0 0 0 0 0 -5 5 0 0. 9.
 15 1 1 2 0 0 -3.34203 -0.77139 3.17458 4.99999 1.7768 0. 1
 -15 1 1 2 0 0 3.34203 0.77139 -3.17459 5 1.7768 0. -1
</event>
<event>
 4 80 1 -1 -1 -1
 11 -1 0 0 0 0 0 0 4.99162 4.99162 0 0. 9.
 -11 -1 0 0 0 0 0 0 -4.99999 4.99999 0 0. 9.
 15 1 1 2 0 0 3.34607 2.26249 2.33788 4.99385 1.7768 0. -1
 -15 1 1 2 0 0 -3.34607 -2.26249 -2.34625 4.99777 1.7768 0. 1
</event>
<event>
 4 80 1 -1 -1 -1
 11 -1 0 0 0 0 0 0 5 5 0 0. 9.
 -11 -1 0 0 0 0 0 0 -5 5 0 0. 9.
 15 1 1 2 0 0 1.88895 1.71202 3.91703 5 1.7768 0. 1
 -15 1 1 2 0 0 -1.88895 -1.71202 -3.91703 5 1.7768 0. -1
</event>
<event>
 4 80 1 -1 -1 -1
 11 -1 0 0 0 0 0 0 5 5 0 0. 9.
 -11 -1 0 0 0 0 0 0 -5 5 0 0. 9.
 15 1 1 2 0 0 1.87656 -0.906156 4.18326 5 1.7768 0. 1
 -15 1 1 2 0 0 -1.87656 0.906156 -4.18326 5 1.7768 0. -1
</event>
<event>
 4 80 1 -1 -1 -1
 11 -1 0 0 0 0 0 0 4.99656 4.99656 0 0. 9.
 -11 -1 0 0 0 0 0 0 -5 5 0 0. 9.
 15 1 1 2 0 0 -3.11014 1.85715 -2.95182 4.99929 1.7768 0. -1
 -15 1 1 2 0 0 3.11014 -1.85715 2.94838 4.99726 1.7768 0. 1
</event>
<event>
 4 80 1 -1 -1 -1
 11 -1 0 0 0 0 0 0 5 5 0 0. 9.
 -11 -1 0 0 0 0 0 0 -4.98183 4.98183 0 0. 9.
 15 1 1 2 0 0 4.53549 -0.784447 0.761035 4.99229 1.7768 0. -1
 -15 1 1 2 0 0 -4.53549 0.784447 -0.742868 4.98955 1.7768 0. 1
</event>
<event>
 4 80 1 -1 -1 -1
 11 -1 0 0 0 0 0 0 5 5 0 0. 9.
 -11 -1 0 0 0 0 0 0 -3.73557 3.73557 0 0. 9.
 15 1 1 2 0 0 3.13001 0.774072 -1.6555 4.03665 1.7768 0. 1
 -15 1 1 2 0 0 -3.13001 -0.774072 2.91992 4.69892 1.7768 0. -1
</event>
<event>
 4 80 1 -1 -1 -1
 11 -1 0 0 0 0 0 0 4.96841 4.96841 0 0. 9.
 -11 -1 0 0 0 0 0 0 -4.90904 4.90904 0 0. 9.
 15 1 1 2 0 0 3.9977 -2.22823 -0.504864 4.93551 1.7768 0. 1
 -15 1 1 2 0 0 -3.9977 2.22823 0.564234 4.94194 1.7768 0. -1
</event>
<event>
 4 80 1 -1 -1 -1
 11 -1 0 0 0 0 0 0 5 5 0 0. 9.
 -11 -1 0 0 0 0 0 0 -1.27846 1.27846 0 0. 9.
 15 1 1 2 0 0 -1.31722 -1.13938 2.41787 3.46945 1.7768 0. -1
 -15 1 1 2 0 0 1.31722 1.13938 1.30368 2.80901 1.7768 0. 1
</event>
<event>
 4 80 1 -1 -1 -1
 11 -1 0 0 0 0 0 0 4.99963 4.99963 0 0. 9.
 -11 -1 0 0 0 0 0 0 -4.9099 4.9099 0 0. 9.
 15 1 1 2 0 0 0.459292 -1.62208 4.35176 4.99376 1.7768 0. 1
 -15 1 1 2 0 0 -0.459292 1.62208 -4.26203 4.91577 1.7768 0. -1
</event>
<event>
 4 80 1 -1 -1 -1
 11 -1 0 0 0 0 0 0 2.6064 2.6064 0 0. 9.
 -11 -1 0 0 0 0 0 0 -5 5 0 0. 9.
 15 1 1 2 0 0 -2.35253 -0.440968 0.948213 3.12821 1.7768 0. -1
 -15 1 1 2 0 0 2.35253 0.440968 -3.34181 4.4782 1.7768 0. 1
</event>
<event>
 4 80 1 -1 -1 -1
 11 -1 0 0 0 0 0 0 5 5 0 0. 9.
 -11 -1 0 0 0 0 0 0 -5 5 0 0. 9.
 15 1 1 2 0 0 1.62587 1.07243 -4.24838 5 1.7768 0. 1
 -15 1 1 2 0 0 -1.62587 -1.07243 4.24838 5 1.7768 0. -1
</event>
<event>
 4 80 1 -1 -1 -1
 11 -1 0 0 0 0 0 0 5 5 0 0. 9.
 -11 -1 0 0 0 0 0 0 -4.99999 4.99999 0 0. 9.
 15 1 1 2 0 0 -1.60604 -4.34604 -0.612194 4.99999 1.7768 0. -1
 -15 1 1 2 0 0 1.60604 4.34604 0.612207 4.99999 1.7768 0. 1
</event>
<event>
 4 80 1 -1 -1 -1
 11 -1 0 0 0 0 0 0 4.68689 4.68689 0 0. 9.
 -11 -1 0 0 0 0 0 0 -4.93961 4.93961 0 0. 9.
 15 1 1 2 0 0 0.24518 4.34171 0.914751 4.78592 1.7768 0. 1
 -15 1 1 2 0 0 -0.24518 -4.34171 -1.16747 4.84058 1.7768 0. -1
</event>
<event>
 4 80 1 -1 -1 -1
 11 -1 0 0 0 0 0 0 4.92233 4.92233 0 0. 9.
 -11 -1 0 0 0 0 0 0 -4.99994 4.99994 0 0. 9.
 15 1 1 2 0 0 2.15407 2.99635 2.76047 4.93924 1.7768 0. -1
 -15 1 1 2 0 0 -2.15407 -2.99635 -2.83808 4.98303 1.7768 0. 1
</event>
<event>
 4 80 1 -1 -1 -1
 11 -1 0 0 0 0 0 0 5 5 0 0. 9.
 -11 -1 0 0 0 0 0 0 -5 5 0 0. 9.
 15 1 1 2 0 0 1.07413 -3.39976 -3.02162 5 1.7768 0. -1
 -15 1 1 2 0 0 -1.07413 3.39976 3.02162 5 1.7768 0. 1
</event>
<event>
 4 80 1 -1 -1 -1
 11 -1 0 0 0 0 0 0 5 5 0 0. 9.
 -11 -1 0 0 0 0 0 0 -5 5 0 0. 9.
 15 1 1 2 0 0 1.3212 -4.48047 -0.148653 5 1.7768 0. -1
 -15 1 1 2 0 0 -1.3212 4.48047 0.148653 5 1.7768 0. 1
</event>
<event>
 4 80 1 -1 -1 -1
 11 -1 0 0 0 0 0 0 5 5 0 0. 9.
 -11 -1 0 0 0 0 0 0 -5 5 0 0. 9.
 15 1 1 2 0 0 -0.65525 -0.254554 4.6204 5 1.7768 0. -1
 -15 1 1 2 0 0 0.65525 0.254554 -4.6204 5 1.7768 0. 1
</event>
<event>
 4 80 1 -1 -1 -1
 11 -1 0 0 0 0 0 0 5 5 0 0. 9.
 -11 -1 0 0 0 0 0 0 -4.9115 4.9115 0 0. 9.
 15 1 1 2 0 0 3.92575 2.01294 -1.34733 4.94332 1.7768 0. -1
 -15 1 1 2 0 0 -3.92575 -2.01294 1.43583 4.96817 1.7768 0. 1
</event>
<event>
 4 80 1 -1 -1 -1
 11 -1 0 0 0 0 0 0 4.99994 4.99994 0 0. 9.
 -11 -1 0 0 0 0 0 0 -5 5 0 0. 9.
 15 1 1 2 0 0 4.6097 -0.55122 -0.537396 4.99997 1.7768 0. -1
 -15 1 1 2 0 0 -4.6097 0.55122 0.537334 4.99997 1.7768 0. 1
</event>
<event>
 4 80 1 -1 -1 -1
 11 -1 0 0 0 0 0 0 5 5 0 0. 9.
 -11 -1 0 0 0 0 0 0 -4.62855 4.62855 0 0. 9.
 15 1 1 2 0 0 1.39351 1.25139 -3.87651 4.65756 1.7768 0. 1
 -15 1 1 2 0 0 -1.39351 -1.25139 4.24796 4.97099 1.7768 0. -1
</event>
<event>
 4 80 1 -1 -1 -1
 11 -1 0 0 0 0 0 0 4.94075 4.94075 0 0. 9.
 -11 -1 0 0 0 0 0 0 -5 5 0 0. 9.
 15 1 1 2 0 0 -1.84102 -3.1651 -2.88254 4.98738 1.7768 0. 1
 -15 1 1 2 0 0 1.84102 3.1651 2.82329 4.95337 1.7768 0. -1
</event>
<event>
 4 80 1 -1 -1 -1
 11 -1 0 0 0 0 0 0 5 5 0 0. 9.
 -11 -1 0 0 0 0 0 0 -4.43218 4.43218 0 0. 9.
 15 1 1 2 0 0 -0.0609535 3.77608 2.46517 4.8474 1.7768 0. 1
 -15 1 1 2 0 0 0.0609535 -3.77608 -1.89735 4.58478 1.7768 0. -1
</event>
<event>
 4 80 1 -1 -1 -1
 11 -1 0 0 0 0 0 0 5 5 0 0. 9.
 -11 -1 0 0 0 0 0 0 -4.81715 4.81715 0 0. 9.
 15 1 1 2 0 0 1.77408 3.51046 -2.24507 4.86506 1.7768 0. -1
 -15 1 1 2 0 0 -1.77408 -3.51046 2.42792 4.95209 1.7768 0. 1
</event>
<event>
 4 80 1 -1 -1 -1
 11 -1 0 0 0 0 0 0 4.99046 4.99046 0 0. 9.
 -11 -1 0 0 0 0 0 0 -5 5 0 0. 9.
 15 1 1 2 0 0 1.75492 -3.34351 -2.74991 4.99785 1.7768 0. 1
 -15 1 1 2 0 0 -1.75492 3.34351 2.74038 4.99261 1.7768 0. -1
</event>
<event>
 4 80 1 -1 -1 -1
 11 -1 0 0 0 0 0 0 4.99079 4.99079 0 0. 9.
 -11 -1 0 0 0 0 0 0 -4.99937 4.99937 0 0. 9.
 15 1 1 2 0 0 -4.41613 -1.51307 -0.0422428 4.99511 1.7768 0. -1
 -15 1 1 2 0 0 4.41613 1.51307 0.0336653 4.99504 1.7768 0. 1
</event>
<event>
 4 80 1 -1 -1 -1
 11 -1 0 0 0 0 0 0 3.0236 3.0236 0 0. 9.
 -11 -1 0 0 0 0 0 0 -5 5 0 0. 9.
 15 1 1 2 0 0 2.34172 -0.841984 1.48975 3.40142 1.7768 0. -1
 -15 1 1 2 0 0 -2.34172 0.841984 -3.46615 4.62218 1.7768 0. 1
</event>
<event>
 4 80 1 -1 -1 -1
 11 -1 0 0 0 0 0 0 5 5 0 0. 9.
 -11 -1 0 0 0 0 0 0 -4.99986 4.99986 0 0. 9.
 15 1 1 2 0 0 -4.22045 -0.136572 -2.0026 4.9999 1.7768 0. -1
 -15 1 1 2 0 0 4.22045 0.136572 2.00274 4.99996 1.7768 0. 1
</event>
<event>
 4 80 1 -1 -1 -1
 11 -1 0 0 0 0 0 0 5 5 0 0. 9.
 -11 -1 0 0 0 0 0 0 -5 5 0 0. 9.
 15 1 1 2 0 0 -4.10959 2.15622 -0.55159 5 1.7768 0. 1
 -15 1 1 2 0 0 4.10959 -2.15622 0.55159 5 1.7768 0. -1
</event>
<event>
 4 80 1 -1 -1 -1
 11 -1 0 0 0 0 0 0 5 5 0 0. 9.
 -11 -1 0 0 0 0 0 0 -1.03879 1.03879 0 0. 9.
 15 1 1 2 0 0 -0.854868 0.11661 0.474779 2.03164 1.7768 0. 1
 -15 1 1 2 0 0 0.854868 -0.11661 3.48643 4.00716 1.7768 0. -1
</event>
<event>
 4 80 1 -1 -1 -1
 11 -1 0 0 0 0 0 0 5 5 0 0. 9.
 -11 -1 0 0 0 0 0 0 -5 5 0 0. 9.
 15 1 1 2 0 0 4.32685 0.806182 -1.57184 5 1.7768 0. -1
 -15 1 1 2 0 0 -4.32685 -0.806182 1.57184 5 1.7768 0. 1
</event>
<event>
 4 80 1 -1 -1 -1
 11 -1 0 0 0 0 0 0 5 5 0 0. 9.
 -11 -1 0 0 0 0 0 0 -1.39973 1.39973 0 0. 9.
 15 1 1 2 0 0 0.175634 0.695046 4.00636 4.44101 1.7768 0. 1
 -15 1 1 2 0 0 -0.175634 -0.695046 -0.406084 1.95872 1.7768 0. -1
</event>
<event>
 4 80 1 -1 -1 -1
 11 -1 0 0 0 0 0 0 5 5 0 0. 9.
 -11 -1 0 0 0 0 0 0 -4.96168 4.96168 0 0. 9.
 15 1 1 2 0 0 -3.6636 -0.761629 -2.74647 4.9702 1.7768 0. 1
 -15 1 1 2 0 0 3.6636 0.761629 2.78479 4.99148 1.7768 0. -1
</event>
<event>
 4 80 1 -1 -1 -1
 11 -1 0 0 0 0 0 0 4.98178 4.98178 0 0. 9.
 -11 -1 0 0 0 0 0 0 -4.98673 4.98673 0 0. 9.
 15 1 1 2 0 0 -0.925161 -1.91223 -4.14645 4.98632 1.7768 0. 1
 -15 1 1 2 0 0 0.925161 1.91223 4.1415 4.9822 1.7768 0. -1
</event>
<event>
 4 80 1 -1 -1 -1
 11 -1 0 0 0 0 0 0 5 5 0 0. 9.
 -11 -1 0 0 0 0 0 0 -5 5 0 0. 9.
 15 1 1 2 0 0 3.06662 -0.929733 3.40202 5 1.7768 0. 1
 -15 1 1 2 0 0 -3.06662 0.929733 -3.40201 5 1.7768 0. -1
</event>
<event>
 4 80 1 -1 -1 -1
 11 -1 0 0 0 0 0 0 5 5 0 0. 9.
 -11 -1 0 0 0 0 0 0 -4.84757 4.84757 0 0. 9.
 15 1 1 2 0 0 3.35516 -1.56218 2.79363 4.96585 1.7768 0. 1
 -15 1 1 2 0 0 -3.35516 1.56218 -2.64121 4.88172 1.7768 0. -1
</event>
<event>
 4 80 1 -1 -1 -1
 11 -1 0 0 0 0 0 0 4.99999 4.99999 0 0. 9.
 -11 -1 0 0 0 0 0 0 -4.99997 4.99997 0 0. 9.
 15 1 1 2 0 0 1.80157 2.75472 -3.31781 4.99997 1.7768 0. -1
 -15 1 1 2 0 0 -1.80157 -2.75472 3.31784 4.99999 1.7768 0. 1
</event>
<event>
 4 80 1 -1 -1 -1
 11 -1 0 0 0 0 0 0 5 5 0 0. 9.
 -11 -1 0 0 0 0 0 0 -4.99839 4.99839 0 0. 9.
 15 1 1 2 0 0 0.362667 3.19116 -3.39318 4.99865 1.7768 0. 1
 -15 1 1 2 0 0 -0.362667 -3.19116 3.3948 4.99974 1.7768 0. -1
</event>
<event>
 4 80 1 -1 -1 -1
 11 -1 0 0 0 0 0 0 5 5 0 0. 9.
 -11 -1 0 0 0 0 0 0 -5 5 0 0. 9.
 15 1 1 2 0 0 -3.67183 0.607359 -2.82684 5 1.7768 0. 1
 -15 1 1 2 0 0 3.67183 -0.607359 2.82684 5 1.7768 0. -1
</event>
<event>
 4 80 1 -1 -1 -1
 11 -1 0 0 0 0 0 0 4.99845 4.99845 0 0. 9.
 -11 -1 0 0 0 0 0 0 -5 5 0 0. 9.
 15 1 1 2 0 0 -4.62749 -0.528788 -0.376506 4.99928 1.7768 0. -1
 -15 1 1 2 0 0 4.62749 0.528788 0.374955 4.99916 1.7768 0. 1
</event>
<event>
 4 80 1 -1 -1 -1
 11 -1 0 0 0 0 0 0 2.70382 2.70382 0 0. 9.
 -11 -1 0 0 0 0 0 0 -5 5 0 0. 9.
 15 1 1 2 0 0 2.77816 1.09373 0.112078 3.47631 1.7768 0. -1
 -15 1 1 2 0 0 -2.77816 -1.09373 -2.40826 4.22751 1.7768 0. 1
</event>
<event>
 4 80 1 -1 -1 -1
 11 -1 0 0 0 0 0 0 5 5 0 0. 9.
 -11 -1 0 0 0 0 0 0 -4.98715 4.98715 0 0. 9.
 15 1 1 2 0 0 -3.96367 0.038236 2.46932 4.99674 1.7768 0. 1
 -15 1 1 2 0 0 3.96367 -0.038236 -2.45647 4.9904 1.7768 0. -1
</event>
<event>
 4 80 1 -1 -1 -1
 11 -1 0 0 0 0 0 0 4.54125 4.54125 0 0. 9.
 -11 -1 0 0 0 0 0 0 -4.99999 4.99999 0 0. 9.
 15 1 1 2 0 0 2.51823 -1.50192 -3.54247 4.92991 1.7768 0. -1
 -15 1 1 2 0 0 -2.51823 1.50192 3.08373 4.61133 1.7768 0. 1
</event>
<event>
 4 80 1 -1 -1 -1
 11 -1 0 0 0 0 0 0 3.58416 3.58416 0 0. 9.
 -11 -1 0 0 0 0 0 0 -5 5 0 0. 9.
 15 1 1 2 0 0 -1.71596 -1.64993 -3.76581 4.79644 1.7768 0. 1
 -15 1 1 2 0 0 1.71596 1.64993 2.34997 3.78772 1.7768 0. -1
</event>
<event>
 4 80 1 -1 -1 -1
 11 -1 0 0 0 0 0 0 3.99052 3.99052 0 0. 9.
 -11 -1 0 0 0 0 0 0 -4.99162 4.99162 0 0. 9.
 15 1 1 2 0 0 -1.58047 1.77987 -3.85244 4.86465 1.7768 0. -1
 -15 1 1 2 0 0 1.58047 -1.77987 2.85135 4.11749 1.7768 0. 1
</event>
<event>
 4 80 1 -1 -1 -1
 11 -1 0 0 0 0 0 0 5 5 0 0. 9.
 -11 -1 0 0 0 0 0 0 -4.37251 4.37251 0 0. 9.
 15 1 1 2 0 0 4.18647 -0.844897 -0.369289 4.64053 1.7768 0. 1
 -15 1 1 2 0 0 -4.18647 0.844897 0.996775 4.73199 1.7768 0. -1
</event>
<event>
 4 80 1 -1 -1 -1
 11 -1 0 0 0 0 0 0 5 5 0 0. 9.
 -11 -1 0 0 0 0 0 0 -3.86924 3.86924 0 0. 9.
 15 1 1 2 0 0 1.61547 0.89695 -3.03813 3.9752 1.7768 0. -1
 -15 1 1 2 0 0 -1.61547 -0.89695 4.16889 4.89404 1.7768 0. 1
</event>
<event>
 4 80 1 -1 -1 -1
 11 -1 0 0 0 0 0 0 4.99949 4.99949 0 0. 9.
 -11 -1 0 0 0 0 0 0 -5 5 0 0. 9.
 15 1 1 2 0 0 3.86974 -2.44483 0.941895 4.9997 1.7768 0. -1
 -15 1 1 2 0 0 -3.86974 2.44483 -0.9424 4.99979 1.7768 0. 1
</event>
<event>
 4 80 1 -1 -1 -1
 11 -1 0 0 0 0 0 0 1.61632 1.61632 0 0. 9.
 -11 -1 0 0 0 0 0 0 -2.15862 2.15862 0 0. 9.
 15 1 1 2 0 0 0.423372 0.130875 0.100001 1.83415 1.7768 0. 1
 -15 1 1 2 0 0 -0.423372 -0.130875 -0.642301 1.94079 1.7768 0. -1
</event>
<event>
 4 80 1 -1 -1 -1
 11 -1 0 0 0 0 0 0 3.73074 3.73074 0 0. 9.
 -11 -1 0 0 0 0 0 0 -1.31488 1.31488 0 0. 9.
 15 1 1 2 0 0 0.536813 -0.306926 -0.123045 1.88553 1.7768 0. 1
 -15 1 1 2 0 0 -0.536813 0.306926 2.5389 3.16008 1.7768 0. -1
</event>
<event>
 4 80 1 -1 -1 -1
 11 -1 0 0 0 0 0 0 4.99857 4.99857 0 0. 9.
 -11 -1 0 0 0 0 0 0 -1.514 1.514 0 0. 9.
 15 1 1 2 0 0 -1.08999 0.230458 3.84942 4.38371 1.7768 0. -1
 -15 1 1 2 0 0 1.08999 -0.230458 -0.364845 2.12886 1.7768 0. 1
</event>
<event>
 4 80 1 -1 -1 -1
 11 -1 0 0 0 0 0 0 4.99843 4.99843 0 0. 9.
 -11 -1 0 0 0 0 0 0 -5 5 0 0. 9.
 15 1 1 2 0 0 1.32856 2.01006 4.00283 4.99858 1.7768 0. 1
 -15 1 1 2 0 0 -1.32856 -2.01006 -4.00441 4.99984 1.7768 0. -1
</event>
<event>
 4 80 1 -1 -1 -1
 11 -1 0 0 0 0 0 0 4.99915 4.99915 0 0. 9.
 -11 -1 0 0 0 0 0 0 -5 5 0 0. 9.
 15 1 1 2 0 0 1.6191 -4.18328 1.3098 4.99946 1.7768 0. -1
 -15 1 1 2 0 0 -1.6191 4.18328 -1.31065 4.99969 1.7768 0. 1
</event>
<event>
 4 80 1 -1 -1 -1
 11 -1 0 0 0 0 0 0 4.51286 4.51286 0 0. 9.
 -11 -1 0 0 0 0 0 0 -4.99999 4.99999 0 0. 9.
 15 1 1 2 0 0 3.4414 -2.32377 -1.71634 4.83184 1.7768 0. -1
 -15 1 1 2 0 0 -3.4414 2.32377 1.22921 4.68101 1.7768 0. 1
</event>
<event>
 4 80 1 -1 -1 -1
 11 -1 0 0 0 0 0 0 5 5 0 0. 9.
 -11 -1 0 0 0 0 0 0 -5 5 0 0. 9.
 15 1 1 2 0 0 2.13366 3.06986 -2.80458 5 1.7768 0. -1
 -15 1 1 2 0 0 -2.13366 -3.06986 2.80458 5 1.7768 0. 1
</event>
<event>
 4 80 1 -1 -1 -1
 11 -1 0 0 0 0 0 0 5 5 0 0. 9.
 -11 -1 0 0 0 0 0 0 -5 5 0 0. 9.
 15 1 1 2 0 0 3.73685 -2.73548 -0.62878 5 1.7768 0. -1
 -15 1 1 2 0 0 -3.73685 2.73548 0.62878 5 1.7768 0. 1
</event>
<event>
 4 80 1 -1 -1 -1
 11 -1 0 0 0 0 0 0 5 5 0 0. 9.
 -11 -1 0 0 0 0 0 0 -4.68125 4.68125 0 0. 9.
 15 1 1 2 0 0 -3.22481 0.451837 3.26669 4.94293 1.7768 0. -1
 -15 1 1 2 0 0 3.22481 -0.451837 -2.94795 4.73832 1.7768 0. 1
</event>
<event>
 4 80 1 -1 -1 -1
 11 -1 0 0 0 0 0 0 4.99863 4.99863 0 0. 9.
 -11 -1 0 0 0 0 0 0 -5 5 0 0. 9.
 15 1 1 2 0 0 0.223372 -4.25326 1.92164 4.99905 1.7768 0. -1
 -15 1 1 2 0 0 -0.223372 4.25326 -1.92301 4.99958 1.7768 0. 1
</event>
<event>
 4 80 1 -1 -1 -1
 11 -1 0 0 0 0 0 0 4.99977 4.99977 0 0. 9.
 -11 -1 0 0 0 0 0 0 -5 5 0 0. 9.
 15 1 1 2 0 0 2.55155 1.95654 3.39145 4.99981 1.7768 0. 1
 -15 1 1 2 0 0 -2.55155 -1.95654 -3.39168 4.99996 1.7768 0. -1
</event>
<event>
 4 80 1 -1 -1 -1
 11 -1 0 0 0 0 0 0 4.99983 4.99983 0 0. 9.
 -11 -1 0 0 0 0 0 0 -5 5 0 0. 9.
 15 1 1 2 0 0 -0.112027 -1.76922 -4.32429 4.99999 1.7768 0. 1
 -15 1 1 2 0 0 0.112027 1.76922 4.32411 4.99984 1.7768 0. -1
</event>
<event>
 4 80 1 -1 -1 -1
 11 -1 0 0 0 0 0 0 3.00045 3.00045 0 0. 9.
 -11 -1 0 0 0 0 0 0 -5 5 0 0. 9.
 15 1 1 2 0 0 1.84476 1.98598 1.19041 3.45283 1.7768 0. -1
 -15 1 1 2 0 0 -1.84476 -1.98598 -3.18995 4.54761 1.7768 0. 1
</event>
<event>
 4 80 1 -1 -1 -1
 11 -1 0 0 0 0 0 0 5 5 0 0. 9.
 -11 -1 0 0 0 0 0 0 -4.77472 4.77472 0 0. 9.
 15 1 1 2 0 0 -0.137346 -1.08768 4.53127 4.9892 1.7768 0. 1
 -15 1 1 2 0 0 0.137346 1.08768 -4.306 4.78553 1.7768 0. -1
</event>
<event>
 4 80 1 -1 -1 -1
 11 -1 0 0 0 0 0 0 5 5 0 0. 9.
 -11 -1 0 0 0 0 0 0 -4.99995 4.99995 0 0. 9.
 15 1 1 2 0 0 0.644012 -2.39767 -3.95957 4.99995 1.7768 0. 1
 -15 1 1 2 0 0 -0.644012 2.39767 3.95962 4.99999 1.7768 0. -1
</event>
<event>
 4 80 1 -1 -1 -1
 11 -1 0 0 0 0 0 0 4.93748 4.93748 0 0. 9.
 -11 -1 0 0 0 0 0 0 -5 5 0 0. 9.
 15 1 1 2 0 0 2.93196 3.59378 0.103106 4.9679 1.7768 0. -1
 -15 1 1 2 0 0 -2.93196 -3.59378 -0.165622 4.96959 1.7768 0. 1
</event>
<event>
 4 80 1 -1 -1 -1
 11 -1 0 0 0 0 0 0 3.9042 3.9042 0 0. 9.
 -11 -1 0 0 0 0 0 0 -5 5 0 0. 9.
 15 1 1 2 0 0 -1.4964 3.14913 -2.61472 4.70645 1.7768 0. -1
 -15 1 1 2 0 0 1.4964 -3.14913 1.51892 4.19775 1.7768 0. 1
</event>
<event>
 4 80 1 -1 -1 -1
 11 -1 0 0 0 0 0 0 4.96403 4.96403 0 0. 9.
 -11 -1 0 0 0 0 0 0 -5 5 0 0. 9.
 15 1 1 2 0 0 0.98875 4.25299 -1.62947 4.98783 1.7768 0. 1
 -15 1 1 2 0 0 -0.98875 -4.25299 1.5935 4.9762 1.7768 0. -1
</event>
<event>
 4 80 1 -1 -1 -1
 11 -1 0 0 0 0 0 0 4.99888 4.99888 0 0. 9.
 -11 -1 0 0 0 0 0 0 -4.99993 4.99993 0 0. 9.
 15 1 1 2 0 0 -0.0018745 -1.36089 -4.47091 4.99987 1.7768 0. 1
 -15 1 1 2 0 0 0.0018745 1.36089 4.46985 4.99893 1.7768 0. -1
</event>
<event>
 4 80 1 -1 -1 -1
 11 -1 0 0 0 0 0 0 4.82029 4.82029 0 0. 9.
 -11 -1 0 0 0 0 0 0 -4.99655 4.99655 0 0. 9.
 15 1 1 2 0 0 -4.03964 1.95282 -0.979831 4.92443 1.7768 0. -1
 -15 1 1 2 0 0 4.03964 -1.95282 0.803564 4.89241 1.7768 0. 1
</event>
<event>
 4 80 1 -1 -1 -1
 11 -1 0 0 0 0 0 0 5 5 0 0. 9.
 -11 -1 0 0 0 0 0 0 -4.98297 4.98297 0 0. 9.
 15 1 1 2 0 0 -3.72687 -2.59524 -1.05556 4.98967 1.7768 0. 1
 -15 1 1 2 0 0 3.72687 2.59524 1.07259 4.9933 1.7768 0. -1
</event>
<event>
 4 80 1 -1 -1 -1
 11 -1 0 0 0 0 0 0 4.95734 4.95734 0 0. 9.
 -11 -1 0 0 0 0 0 0 -5 5 0 0. 9.
 15 1 1 2 0 0 4.31774 -1.69672 -0.348763 4.98007 1.7768 0. 1
 -15 1 1 2 0 0 -4.31774 1.69672 0.306103 4.97727 1.7768 0. -1
</event>
<event>
 4 80 1 -1 -1 -1
 11 -1 0 0 0 0 0 0 4.99995 4.99995 0 0. 9.
 -11 -1 0 0 0 0 0 0 -5 5 0 0. 9.
 15 1 1 2 0 0 -2.84425 -2.39206 2.83375 4.99996 1.7768 0. 1
 -15 1 1 2 0 0 2.84425 2.39206 -2.8338 4.99999 1.7768 0. -1
</event>
<event>
 4 80 1 -1 -1 -1
 11 -1 0 0 0 0 0 0 4.53258 4.53258 0 0. 9.
 -11 -1 0 0 0 0 0 0 -5 5 0 0. 9.
 15 1 1 2 0 0 1.85978 -3.22628 2.1435 4.64973 1.7768 0. -1
 -15 1 1 2 0 0 -1.85978 3.22628 -2.61092 4.88285 1.7768 0. 1
</event>
<event>
 4 80 1 -1 -1 -1
 11 -1 0 0 0 0 0 0 4.99995 4.99995 0 0. 9.
 -11 -1 0 0 0 0 0 0 -4.9977 4.9977 0 0. 9.
 15 1 1 2 0 0 2.82159 -0.926243 -3.60599 4.99801 1.7768 0. -1
 -15 1 1 2 0 0 -2.82159 0.926243 3.60824 4.99964 1.7768 0. 1
</event>
<event>
 4 80 1 -1 -1 -1
 11 -1 0 0 0 0 0 0 5 5 0 0. 9.
 -11 -1 0 0 0 0 0 0 -5 5 0 0. 9.
 15 1 1 2 0 0 0.32806 4.3612 -1.64759 5 1.7768 0. -1
 -15 1 1 2 0 0 -0.32806 -4.3612 1.64759 5 1.7768 0. 1
</event>
<event>
 4 80 1 -1 -1 -1
 11 -1 0 0 0 0 0 0 5 5 0 0. 9.
 -11 -1 0 0 0 0 0 0 -5 5 0 0. 9.
 15 1 1 2 0 0 -0.967738 3.63444 2.77427 5 1.7768 0. 1
 -15 1 1 2 0 0 0.967738 -3.63444 -2.77427 5 1.7768 0. -1
</event>
<event>
 4 80 1 -1 -1 -1
 11 -1 0 0 0 0 0 0 4.81429 4.81429 0 0. 9.
 -11 -1 0 0 0 0 0 0 -5 5 0 0. 9.
 15 1 1 2 0 0 -3.92457 1.82602 1.38293 4.87922 1.7768 0. -1
 -15 1 1 2 0 0 3.92457 -1.82602 -1.56864 4.93507 1.7768 0. 1
</event>
<event>
 4 80 1 -1 -1 -1
 11 -1 0 0 0 0 0 0 5 5 0 0. 9.
 -11 -1 0 0 0 0 0 0 -5 5 0 0. 9.
 15 1 1 2 0 0 -0.662686 -0.398517 -4.60915 5 1.7768 0. 1
 -15 1 1 2 0 0 0.662686 0.398517 4.60915 5 1.7768 0. -1
</event>
<event>
 4 80 1 -1 -1 -1
 11 -1 0 0 0 0 0 0 1.47643 1.47643 0 0. 9.
 -11 -1 0 0 0 0 0 0 -5 5 0 0. 9.
 15 1 1 2 0 0 1.0781 1.32988 -0.406255 2.50073 1.7768 0. -1
 -15 1 1 2 0 0 -1.0781 -1.32988 -3.11731 3.9757 1.7768 0. 1
</event>
<event>
 4 80 1 -1 -1 -1
 11 -1 0 0 0 0 0 0 5 5 0 0. 9.
 -11 -1 0 0 0 0 0 0 -5 5 0 0. 9.
 15 1 1 2 0 0 -0.670579 -4.41566 -1.37642 5 1.7768 0. 1
 -15 1 1 2 0 0 0.670579 4.41566 1.37642 5 1.7768 0. -1
</event>
<event>
 4 80 1 -1 -1 -1
 11 -1 0 0 0 0 0 0 4.99555 4.99555 0 0. 9.
 -11 -1 0 0 0 0 0 0 -4.75842 4.75842 0 0. 9.
 15 1 1 2 0 0 1.93892 4.03645 0.867695 4.8952 1.7768 0. 1
 -15 1 1 2 0 0 -1.93892 -4.03645 -0.630566 4.85878 1.7768 0. -1
</event>
<event>
 4 80 1 -1 -1 -1
 11 -1 0 0 0 0 0 0 5 5 0 0. 9.
 -11 -1 0 0 0 0 0 0 -5 5 0 0. 9.
 15 1 1 2 0 0 -3.91041 -0.177836 -2.55329 5 1.7768 0. 1
 -15 1 1 2 0 0 3.91041 0.177836 2.55329 5 1.7768 0. -1
</event>
<event>
 4 80 1 -1 -1 -1
 11 -1 0 0 0 0 0 0 5 5 0 0. 9.
 -11 -1 0 0 0 0 0 0 -1.15619 1.15619 0 0. 9.
 15 1 1 2 0 0 0.831483 0.299853 3.65939 4.16295 1.7768 0. -1
 -15 1 1 2 0 0 -0.831483 -0.299853 0.184425 1.99324 1.7768 0. 1
</event>
<event>
 4 80 1 -1 -1 -1
 11 -1 0 0 0 0 0 0 5 5 0 0. 9.
 -11 -1 0 0 0 0 0 0 -5 5 0 0. 9.
 15 1 1 2 0 0 3.34601 -2.33516 2.27892 5 1.7768 0. -1
 -15 1 1 2 0 0 -3.34601 2.33516 -2.27892 5 1.7768 0. 1
</event>
<event>
 4 80 1 -1 -1 -1
 11 -1 0 0 0 0 0 0 5 5 0 0. 9.
 -11 -1 0 0 0 0 0 0 -5 5 0 0. 9.
 15 1 1 2 0 0 0.657373 -2.22197 -4.05869 5 1.7768 0. -1
 -15 1 1 2 0 0 -0.657373 2.22197 4.05869 5 1.7768 0. 1
</event>
<event>
 4 80 1 -1 -1 -1
 11 -1 0 0 0 0 0 0 5 5 0 0. 9.
 -11 -1 0 0 0 0 0 0 -4.99153 4.99153 0 0. 9.
 15 1 1 2 0 0 0.410155 -4.6374 0.359531 4.99607 1.7768 0. 1
 -15 1 1 2 0 0 -0.410155 4.6374 -0.351066 4.99546 1.7768 0. -1
</event>
<event>
 4 80 1 -1 -1 -1
 11 -1 0 0 0 0 0 0 5 5 0 0. 9.
 -11 -1 0 0 0 0 0 0 -5 5 0 0. 9.
 15 1 1 2 0 0 2.59396 0.785046 3.80754 5 1.7768 0. 1
 -15 1 1 2 0 0 -2.59396 -0.785046 -3.80754 5 1.7768 0. -1
</event>
<event>
 4 80 1 -1 -1 -1
 11 -1 0 0 0 0 0 0 5 5 0 0. 9.
 -11 -1 0 0 0 0 0 0 -4.99995 4.99995 0 0. 9.
 15 1 1 2 0 0 1.76443 1.96102 -3.85785 4.99996 1.7768 0. 1
 -15 1 1 2 0 0 -1.76443 -1.96102 3.8579 4.99999 1.7768 0. -1
</event>
<event>
 4 80 1 -1 -1 -1
 11 -1 0 0 0 0 0 0 4.80922 4.80922 0 0. 9.
 -11 -1 0 0 0 0 0 0 -5 5 0 0. 9.
 15 1 1 2 0 0 1.727 2.31661 -3.63713 4.97349 1.7768 0. -1
 -15 1 1 2 0 0 -1.727 -2.31661 3.44635 4.83573 1.7768 0. 1
</event>
<event>
 4 80 1 -1 -1 -1
 11 -1 0 0 0 0 0 0 4.99999 4.99999 0 0. 9.
 -11 -1 0 0 0 0 0 0 -5 5 0 0. 9.
 15 1 1 2 0 0 -4.51181 -0.331248 1.17306 4.99999 1.7768 0. -1
 -15 1 1 2 0 0 4.51181 0.331248 -1.17307 4.99999 1.7768 0. 1
</event>
<event>
 4 80 1 -1 -1 -1
 11 -1 0 0 0 0 0 0 5 5 0 0. 9.
 -11 -1 0 0 0 0 0 0 -5 5 0 0. 9.
 15 1 1 2 0 0 2.56042 -3.65315 -1.39321 5 1.7768 0. -1
 -15 1 1 2 0 0 -2.56042 3.65315 1.39321 5 1.7768 0. 1
</event>
<event>
 4 80 1 -1 -1 -1
 11 -1 0 0 0 0 0 0 1.25136 1.25136 0 0. 9.
 -11 -1 0 0 0 0 0 0 -5 5 0 0. 9.
 15 1 1 2 0 0 -1.27074 0.437678 -0.453562 2.27372 1.7768 0. 1
 -15 1 1 2 0 0 1.27074 -0.437678 -3.29508 3.97764 1.7768 0. -1
</event>
<event>
 4 80 1 -1 -1 -1
 11 -1 0 0 0 0 0 0 5 5 0 0. 9.
 -11 -1 0 0 0 0 0 0 -5 5 0 0. 9.
 15 1 1 2 0 0 -1.27769 3.60923 2.68015 5 1.7768 0. 1
 -15 1 1 2 0 0 1.27769 -3.60923 -2.68015 5 1.7768 0. -1
</event>
<event>
 4 80 1 -1 -1 -1
 11 -1 0 0 0 0 0 0 4.98146 4.98146 0 0. 9.
 -11 -1 0 0 0 0 0 0 -4.99759 4.99759 0 0. 9.
 15 1 1 2 0 0 0.390076 -1.16123 -4.50662 4.99679 1.7768 0. -1
 -15 1 1 2 0 0 -0.390076 1.16123 4.49049 4.98225 1.7768 0. 1
</event>
<event>
 4 80 1 -1 -1 -1
 11 -1 0 0 0 0 0 0 5 5 0 0. 9.
 -11 -1 0 0 0 0 0 0 -5 5 0 0. 9.
 15 1 1 2 0 0 1.29397 -4.01839 2.0051 5 1.7768 0. -1
 -15 1 1 2 0 0 -1.29397 4.01839 -2.0051 5 1.7768 0. 1
</event>
<event>
 4 80 1 -1 -1 -1
 11 -1 0 0 0 0 0 0 4.4437 4.4437 0 0. 9.
 -11 -1 0 0 0 0 0 0 -5 5 0 0. 9.
 15 1 1 2 0 0 -1.06592 3.31075 2.36529 4.56613 1.7768 0. -1
 -15 1 1 2 0 0 1.06592 -3.31075 -2.92159 4.87757 1.7768 0. 1
</event>
<event>
 4 80 1 -1 -1 -1
 11 -1 0 0 0 0 0 0 5 5 0 0. 9.
 -11 -1 0 0 0 0 0 0 -5 5 0 0. 9.
 15 1 1 2 0 0 0.451294 4.12954 -2.14139 5 1.7768 0. -1
 -15 1 1 2 0 0 -0.451294 -4.12954 2.14139 5 1.7768 0. 1
</event>
<event>
 4 80 1 -1 -1 -1
 11 -1 0 0 0 0 0 0 4.99755 4.99755 0 0. 9.
 -11 -1 0 0 0 0 0 0 -5 5 0 0. 9.
 15 1 1 2 0 0 -0.324373 -4.52417 1.1198 4.9985 1.7768 0. -1
 -15 1 1 2 0 0 0.324373 4.52417 -1.12225 4.99905 1.7768 0. 1
</event>
<event>
 4 80 1 -1 -1 -1
 11 -1 0 0 0 0 0 0 5 5 0 0. 9.
 -11 -1 0 0 0 0 0 0 -5 5 0 0. 9.
 15 1 1 2 0 0 -1.42145 -3.43621 2.83093 5 1.7768 0. 1
 -15 1 1 2 0 0 1.42145 3.43621 -2.83093 5 1.7768 0. -1
</event>
<event>
 4 80 1 -1 -1 -1
 11 -1 0 0 0 0 0 0 4.44751 4.44751 0 0. 9.
 -11 -1 0 0 0 0 0 0 -4.90558 4.90558 0 0. 9.
 15 1 1 2 0 0 -0.531728 3.19488 2.6327 4.53639 1.7768 0. -1
 -15 1 1 2 0 0 0.531728 -3.19488 -3.09076 4.8167 1.7768 0. 1
</event>
<event>
 4 80 1 -1 -1 -1
 11 -1 0 0 0 0 0 0 4.99277 4.99277 0 0. 9.
 -11 -1 0 0 0 0 0 0 -5 5 0 0. 9.
 15 1 1 2 0 0 -4.46066 0.437314 -1.3141 4.99733 1.7768 0. -1
 -15 1 1 2 0 0 4.46066 -0.437314 1.30686 4.99543 1.7768 0. 1
</event>
<event>
 4 80 1 -1 -1 -1
 11 -1 0 0 0 0 0 0 5 5 0 0. 9.
 -11 -1 0 0 0 0 0 0 -5 5 0 0. 9.
 15 1 1 2 0 0 0.297633 3.11642 3.47011 5 1.7768 0. 1
 -15 1 1 2 0 0 -0.297633 -3.11642 -3.47011 5 1.7768 0. -1
</event>
<event>
 4 80 1 -1 -1 -1
 11 -1 0 0 0 0 0 0 4.99572 4.99572 0 0. 9.
 -11 -1 0 0 0 0 0 0 -4.36473 4.36473 0 0. 9.
 15 1 1 2 0 0 0.330298 -3.06355 -2.71676 4.47582 1.7768 0. -1
 -15 1 1 2 0 0 -0.330298 3.06355 3.34776 4.88463 1.7768 0. 1
</event>
<event>
 4 80 1 -1 -1 -1
 11 -1 0 0 0 0 0 0 5 5 0 0. 9.
 -11 -1 0 0 0 0 0 0 -4.99994 4.99994 0 0. 9.
 15 1 1 2 0 0 1.48753 2.9605 3.29619 4.99999 1.7768 0. 1
 -15 1 1 2 0 0 -1.48753 -2.9605 -3.29613 4.99995 1.7768 0. -1
</event>
<event>
 4 80 1 -1 -1 -1
 11 -1 0 0 0 0 0 0 4.97667 4.97667 0 0. 9.
 -11 -1 0 0 0 0 0 0 -4.84013 4.84013 0 0. 9.
 15 1 1 2 0 0 -0.462705 -0.628173 -4.44008 4.84569 1.7768 0. -1
 -15 1 1 2 0 0 0.462705 0.628173 4.57662 4.97111 1.7768 0. 1
</event>
<event>
 4 80 1 -1 -1 -1
 11 -1 0 0 0 0 0 0 4.99945 4.99945 0 0. 9.
 -11 -1 0 0 0 0 0 0 -4.961 4.961 0 0. 9.
 15 1 1 2 0 0 3.63905 2.27611 -1.77555 4.97329 1.7768 0. -1
 -15 1 1 2 0 0 -3.63905 -2.27611 1.814 4.98715 1.7768 0. 1
</event>
<event>
 4 80 1 -1 -1 -1
 11 -1 0 0 0 0 0 0 3.92769 3.92769 0 0. 9.
 -11 -1 0 0 0 0 0 0 -4.25549 4.25549 0 0. 9.
 15 1 1 2 0 0 -1.36476 3.26742 0.845829 4.05114 1.7768 0. -1
 -15 1 1 2 0 0 1.36476 -3.26742 -1.17363 4.13204 1.7768 0. 1
</event>
<event>
 4 80 1 -1 -1 -1
 11 -1 0 0 0 0 0 0 5 5 0 0. 9.
 -11 -1 0 0 0 0 0 0 -5 5 0 0. 9.
 15 1 1 2 0 0 -4.11291 2.03556 0.884713 5 1.7768 0. -1
 -15 1 1 2 0 0 4.11291 -2.03556 -0.88471 5 1.7768 0. 1
</event>
<event>
 4 80 1 -1 -1 -1
 11 -1 0 0 0 0 0 0 5 5 0 0. 9.
 -11 -1 0 0 0 0 0 0 -5 5 0 0. 9.
 15 1 1 2 0 0 -0.715747 4.52639 0.917494 5 1.7768 0. -1
 -15 1 1 2 0 0 0.715747 -4.52639 -0.917494 5 1.7768 0. 1
</event>
<event>
 4 80 1 -1 -1 -1
 11 -1 0 0 0 0 0 0 5 5 0 0. 9.
 -11 -1 0 0 0 0 0 0 -5 5 0 0. 9.
 15 1 1 2 0 0 1.57912 -3.22364 -2.99279 5 1.7768 0. 1
 -15 1 1 2 0 0 -1.57912 3.22364 2.99279 5 1.7768 0. -1
</event>
<event>
 4 80 1 -1 -1 -1
 11 -1 0 0 0 0 0 0 3.62852 3.62852 0 0. 9.
 -11 -1 0 0 0 0 0 0 -5 5 0 0. 9.
 15 1 1 2 0 0 0.172686 0.181649 3.22691 3.69236 1.7768 0. 1
 -15 1 1 2 0 0 -0.172686 -0.181649 -4.59839 4.93616 1.7768 0. -1
</event>
<event>
 4 80 1 -1 -1 -1
 11 -1 0 0 0 0 0 0 4.89461 4.89461 0 0. 9.
 -11 -1 0 0 0 0 0 0 -2.06726 2.06726 0 0. 9.
 15 1 1 2 0 0 -1.3391 0.775734 3.75195 4.43056 1.7768 0. -1
 -15 1 1 2 0 0 1.3391 -0.775734 -0.924592 2.53131 1.7768 0. 1
</event>
<event>
 4 80 1 -1 -1 -1
 11 -1 0 0 0 0 0 0 2.72563 2.72563 0 0. 9.
 -11 -1 0 0 0 0 0 0 -5 5 0 0. 9.
 15 1 1 2 0 0 -0.267624 2.03429 -3.7553 4.63357 1.7768 0. -1
 -15 1 1 2 0 0 0.267624 -2.03429 1.48093 3.09206 1.7768 0. 1
</event>
<event>
 4 80 1 -1 -1 -1
 11 -1 0 0 0 0 0 0 5 5 0 0. 9.
 -11 -1 0 0 0 0 0 0 -4.99992 4.99992 0 0. 9.
 15 1 1 2 0 0 -3.85466 -0.898726 2.48514 4.99998 1.7768 0. 1
 -15 1 1 2 0 0 3.85466 0.898726 -2.48507 4.99994 1.7768 0. -1
</event>
<event>
 4 80 1 -1 -1 -1
 11 -1 0 0 0 0 0 0 5 5 0 0. 9.
 -11 -1 0 0 0 0 0 0 -5 5 0 0. 9.
 15 1 1 2 0 0 -0.00476708 -2.88527 3.6766 5 1.7768 0. -1
 -15 1 1 2 0 0 0.00476708 2.88527 -3.67661 5 1.7768 0. 1
</event>
<event>
 4 80 1 -1 -1 -1
 11 -1 0 0 0 0 0 0 5 5 0 0. 9.
 -11 -1 0 0 0 0 0 0 -4.51764 4.51764 0 0. 9.
 15 1 1 2 0 0 3.96763 1.67839 -0.693539 4.71145 1.7768 0. -1
 -15 1 1 2 0 0 -3.96763 -1.67839 1.1759 4.80619 1.7768 0. 1
</event>
<event>
 4 80 1 -1 -1 -1
 11 -1 0 0 0 0 0 0 5 5 0 0. 9.
 -11 -1 0 0 0 0 0 0 -5 5 0 0. 9.
 15 1 1 2 0 0 3.01842 -2.28834 -2.73769 5 1.7768 0. 1
 -15 1 1 2 0 0 -3.01842 2.28834 2.73769 5 1.7768 0. -1
</event>
<event>
 4 80 1 -1 -1 -1
 11 -1 0 0 0 0 0 0 5 5 0 0. 9.
 -11 -1 0 0 0 0 0 0 -1.34742 1.34742 0 0. 9.
 15 1 1 2 0 0 0.534078 -0.461514 3.97256 4.40877 1.7768 0. -1
 -15 1 1 2 0 0 -0.534078 0.461514 -0.31998 1.93865 1.7768 0. 1
</event>
<event>
 4 80 1 -1 -1 -1
 11 -1 0 0 0 0 0 0 5 5 0 0. 9.
 -11 -1 0 0 0 0 0 0 -1.38451 1.38451 0 0. 9.
 15 1 1 2 0 0 0.600829 0.44013 -0.366077 1.96124 1.7768 0. 1
 -15 1 1 2 0 0 -0.600829 -0.44013 3.98157 4.42327 1.7768 0. -1
</event>
<event>
 4 80 1 -1 -1 -1
 11 -1 0 0 0 0 0 0 5 5 0 0. 9.
 -11 -1 0 0 0 0 0 0 -5 5 0 0. 9.
 15 1 1 2 0 0 -2.10516 -2.67867 3.19926 5 1.7768 0. -1
 -15 1 1 2 0 0 2.10516 2.67867 -3.19926 5 1.7768 0. 1
</event>
<event>
 4 80 1 -1 -1 -1
 11 -1 0 0 0 0 0 0 5 5 0 0. 9.
 -11 -1 0 0 0 0 0 0 -4.46361 4.46361 0 0. 9.
 15 1 1 2 0 0 -4.26184 0.688214 -0.456474 4.69073 1.7768 0. 1
 -15 1 1 2 0 0 4.26184 -0.688214 0.99286 4.77288 1.7768 0. -1
</event>
<event>
 4 80 1 -1 -1 -1
 11 -1 0 0 0 0 0 0 5 5 0 0. 9.
 -11 -1 0 0 0 0 0 0 -5 5 0 0. 9.
 15 1 1 2 0 0 0.967255 -1.21422 4.40822 5 1.7768 0. 1
 -15 1 1 2 0 0 -0.967255 1.21422 -4.40822 5 1.7768 0. -1
</event>
<event>
 4 80 1 -1 -1 -1
 11 -1 0 0 0 0 0 0 5 5 0 0. 9.
 -11 -1 0 0 0 0 0 0 -1.5783 1.5783 0 0. 9.
 15 1 1 2 0 0 -0.574606 -1.07878 -0.396632 2.19294 1.7768 0. 1
 -15 1 1 2 0 0 0.574606 1.07878 3.81833 4.38536 1.7768 0. -1
</event>
<event>
 4 80 1 -1 -1 -1
 11 -1 0 0 0 0 0 0 2.40245 2.40245 0 0. 9.
 -11 -1 0 0 0 0 0 0 -5 5 0 0. 9.
 15 1 1 2 0 0 -1.6154 -1.31831 0.968377 2.90567 1.7768 0. 1
 -15 1 1 2 0 0 1.6154 1.31831 -3.56593 4.49678 1.7768 0. -1
</event>
<event>
 4 80 1 -1 -1 -1
 11 -1 0 0 0 0 0 0 5 5 0 0. 9.
 -11 -1 0 0 0 0 0 0 -5 5 0 0. 9.
 15 1 1 2 0 0 -2.05776 -0.158746 4.19317 5 1.7768 0. 1
 -15 1 1 2 0 0 2.05776 0.158746 -4.19317 5 1.7768 0. -1
</event>
<event>
 4 80 1 -1 -1 -1
 11 -1 0 0 0 0 0 0 5 5 0 0. 9.
 -11 -1 0 0 0 0 0 0 -5 5 0 0. 9.
 15 1 1 2 0 0 -2.39112 3.98019 0.531909 5 1.7768 0. -1
 -15 1 1 2 0 0 2.39112 -3.98019 -0.531911 5 1.7768 0. 1
</event>
<event>
 4 80 1 -1 -1 -1
 11 -1 0 0 0 0 0 0 5 5 0 0. 9.
 -11 -1 0 0 0 0 0 0 -5 5 0 0. 9.
 15 1 1 2 0 0 0.121229 1.45294 -4.44033 5 1.7768 0. -1
 -15 1 1 2 0 0 -0.121229 -1.45294 4.44033 5 1.7768 0. 1
</event>
<event>
 4 80 1 -1 -1 -1
 11 -1 0 0 0 0 0 0 4.99998 4.99998 0 0. 9.
 -11 -1 0 0 0 0 0 0 -5 5 0 0. 9.
 15 1 1 2 0 0 3.09527 2.07341 -2.82178 5 1.7768 0. -1
 -15 1 1 2 0 0 -3.09527 -2.07341 2.82176 4.99998 1.7768 0. 1
</event>
<event>
 4 80 1 -1 -1 -1
 11 -1 0 0 0 0 0 0 4.9978 4.9978 0 0. 9.
 -11 -1 0 0 0 0 0 0 -0.975822 0.975822 0 0. 9.
 15 1 1 2 0 0 -0.523539 1.17245 1.65189 2.74503 1.7768 0. -1
 -15 1 1 2 0 0 0.523539 -1.17245 2.37008 3.22858 1.7768 0. 1
</event>
<event>
 4 80 1 -1 -1 -1
 11 -1 0 0 0 0 0 0 5 5 0 0. 9.
 -11 -1 0 0 0 0 0 0 -5 5 0 0. 9.
 15 1 1 2 0 0 -0.187927 2.61826 -3.86674 5 1.7768 0. 1
 -15 1 1 2 0 0 0.187927 -2.61826 3.86674 5 1.7768 0. -1
</event>
<event>
 4 80 1 -1 -1 -1
 11 -1 0 0 0 0 0 0 5 5 0 0. 9.
 -11 -1 0 0 0 0 0 0 -4.99994 4.99994 0 0. 9.
 15 1 1 2 0 0 -0.97587 -1.74376 4.22483 5 1.7768 0. 1
 -15 1 1 2 0 0 0.97587 1.74376 -4.22477 4.99994 1.7768 0. -1
</event>
<event>
 4 80 1 -1 -1 -1
 11 -1 0 0 0 0 0 0 5 5 0 0. 9.
 -11 -1 0 0 0 0 0 0 -2.39257 2.39257 0 0. 9.
 15 1 1 2 0 0 0.664418 -1.46678 -1.3599 2.7568 1.7768 0. -1
 -15 1 1 2 0 0 -0.664418 1.46678 3.96733 4.63577 1.7768 0. 1
</event>
<event>
 4 80 1 -1 -1 -1
 11 -1 0 0 0 0 0 0 4.99999 4.99999 0 0. 9.
 -11 -1 0 0 0 0 0 0 -5 5 0 0. 9.
 15 1 1 2 0 0 -1.15938 -0.168013 4.52435 4.99999 1.7768 0. 1
 -15 1 1 2 0 0 1.15938 0.168013 -4.52436 5 1.7768 0. -1
</event>
<event>
 4 80 1 -1 -1 -1
 11 -1 0 0 0 0 0 0 4.24482 4.24482 0 0. 9.
 -11 -1 0 0 0 0 0 0 -4.99829 4.99829 0 0. 9.
 15 1 1 2 0 0 -3.10571 1.10374 -3.06812 4.84095 1.7768 0. 1
 -15 1 1 2 0 0 3.10571 -1.10374 2.31465 4.40216 1.7768 0. -1
</event>
<event>
 4 80 1 -1 -1 -1
 11 -1 0 0 0 0 0 0 3.06563 3.06563 0 0. 9.
 -11 -1 0 0 0 0 0 0 -1.15309 1.15309 0 0. 9.
 15 1 1 2 0 0 0.280982 -0.296661 1.47071 2.34258 1.7768 0. -1
 -15 1 1 2 0 0 -0.280982 0.296661 0.441825 1.87614 1.7768 0. 1
</event>
<event>
 4 80 1 -1 -1 -1
 11 -1 0 0 0 0 0 0 5 5 0 0. 9.
 -11 -1 0 0 0 0 0 0 -4.30215 4.30215 0 0. 9.
 15 1 1 2 0 0 0.705382 2.33932 3.87782 4.91581 1.7768 0. 1
 -15 1 1 2 0 0 -0.705382 -2.33932 -3.17997 4.38634 1.7768 0. -1
</event>
<event>
 4 80 1 -1 -1 -1
 11 -1 0 0 0 0 0 0 4.99863 4.99863 0 0. 9.
 -11 -1 0 0 0 0 0 0 -4.99789 4.99789 0 0. 9.
 15 1 1 2 0 0 -0.104511 3.0062 3.57482 4.99853 1.7768 0. -1
 -15 1 1 2 0 0 0.104511 -3.0062 -3.57409 4.998 1.7768 0. 1
</event>
<event>
 4 80 1 -1 -1 -1
 11 -1 0 0 0 0 0 0 5 5 0 0. 9.
 -11 -1 0 0 0 0 0 0 -4.64203 4.64203 0 0. 9.
 15 1 1 2 0 0 2.73229 -2.05945 3.06986 4.92834 1.7768 0. -1
 -15 1 1 2 0 0 -2.73229 2.05945 -2.7119 4.71369 1.7768 0. 1
</event>
<event>
 4 80 1 -1 -1 -1
 11 -1 0 0 0 0 0 0 5 5 0 0. 9.
 -11 -1 0 0 0 0 0 0 -5 5 0 0. 9.
 15 1 1 2 0 0 -4.54194 0.784 -0.773569 5 1.7768 0. 1
 -15 1 1 2 0 0 4.54194 -0.784 0.77357 5 1.7768 0. -1
</event>
<event>
 4 80 1 -1 -1 -1
 11 -1 0 0 0 0 0 0 4.9973 4.9973 0 0. 9.
 -11 -1 0 0 0 0 0 0 -5 5 0 0. 9.
 15 1 1 2 0 0 0.768671 -3.47648 3.02388 4.99783 1.7768 0. 1
 -15 1 1 2 0 0 -0.768671 3.47648 -3.02658 4.99947 1.7768 0. -1
</event>
<event>
 4 80 1 -1 -1 -1
 11 -1 0 0 0 0 0 0 5 5 0 0. 9.
 -11 -1 0 0 0 0 0 0 -4.99962 4.99962 0 0. 9.
 15 1 1 2 0 0 4.20663 -1.75904 1.02509 4.99985 1.7768 0. -1
 -15 1 1 2 0 0 -4.20663 1.75904 -1.02471 4.99977 1.7768 0. 1
</event>
<event>
 4 80 1 -1 -1 -1
 11 -1 0 0 0 0 0 0 5 5 0 0. 9.
 -11 -1 0 0 0 0 0 0 -4.9965 4.9965 0 0. 9.
 15 1 1 2 0 0 0.669666 0.652825 -4.57538 4.99664 1.7768 0. 1
 -15 1 1 2 0 0 -0.669666 -0.652825 4.57888 4.99985 1.7768 0. -1
</event>
<event>
 4 80 1 -1 -1 -1
 11 -1 0 0 0 0 0 0 5 5 0 0. 9.
 -11 -1 0 0 0 0 0 0 -4.7847 4.7847 0 0. 9.
 15 1 1 2 0 0 -4.05692 -1.88887 0.967687 4.91127 1.7768 0. 1
 -15 1 1 2 0 0 4.05692 1.88887 -0.752386 4.87342 1.7768 0. -1
</event>
<event>
 4 80 1 -1 -1 -1
 11 -1 0 0 0 0 0 0 5 5 0 0. 9.
 -11 -1 0 0 0 0 0 0 -4.99993 4.99993 0 0. 9.
 15 1 1 2 0 0 0.615846 4.47919 1.18304 4.99997 1.7768 0. -1
 -15 1 1 2 0 0 -0.615846 -4.47919 -1.18297 4.99996 1.7768 0. 1
</event>
<event>
 4 80 1 -1 -1 -1
 11 -1 0 0 0 0 0 0 5 5 0 0. 9.
 -11 -1 0 0 0 0 0 0 -5 5 0 0. 9.
 15 1 1 2 0 0 -4.00907 -0.64604 -2.3135 5 1.7768 0. 1
 -15 1 1 2 0 0 4.00907 0.64604 2.3135 5 1.7768 0. -1
</event>
<event>
 4 80 1 -1 -1 -1
 11 -1 0 0 0 0 0 0 4.74394 4.74394 0 0. 9.
 -11 -1 0 0 0 0 0 0 -4.99678 4.99678 0 0. 9.
 15 1 1 2 0 0 -3.60527 2.62109 0.697608 4.84897 1.7768 0. -1
 -15 1 1 2 0 0 3.60527 -2.62109 -0.950441 4.89175 1.7768 0. 1
</event>
<event>
 4 80 1 -1 -1 -1
 11 -1 0 0 0 0 0 0 3.02017 3.02017 0 0. 9.
 -11 -1 0 0 0 0 0 0 -5 5 0 0. 9.
 15 1 1 2 0 0 1.46857 -2.89032 0.24517 3.7052 1.7768 0. -1
 -15 1 1 2 0 0 -1.46857 2.89032 -2.225 4.31497 1.7768 0. 1
</event>
<event>
 4 80 1 -1 -1 -1
 11 -1 0 0 0 0 0 0 4.99999 4.99999 0 0. 9.
 -11 -1 0 0 0 0 0 0 -1.80328 1.80328 0 0. 9.
 15 1 1 2 0 0 0.947318 2.00337 0.495504 2.88343 1.7768 0. 1
 -15 1 1 2 0 0 -0.947318 -2.00337 2.70121 3.91984 1.7768 0. -1
</event>
<event>
 4 80 1 -1 -1 -1
 11 -1 0 0 0 0 0 0 5 5 0 0. 9.
 -11 -1 0 0 0 0 0 0 -4.99999 4.99999 0 0. 9.
 15 1 1 2 0 0 2.52384 3.9335 0.00773738 5 1.7768 0. 1
 -15 1 1 2 0 0 -2.52384 -3.9335 -0.00773231 5 1.7768 0. -1
</event>
<event>
 4 80 1 -1 -1 -1
 11 -1 0 0 0 0 0 0 5 5 0 0. 9.
 -11 -1 0 0 0 0 0 0 -5 5 0 0. 9.
 15 1 1 2 0 0 -2.02357 -0.4399 4.18974 5 1.7768 0. -1
 -15 1 1 2 0 0 2.02357 0.4399 -4.18974 5 1.7768 0. 1
</event>
<event>
 4 80 1 -1 -1 -1
 11 -1 0 0 0 0 0 0 5 5 0 0. 9.
 -11 -1 0 0 0 0 0 0 -4.99892 4.99892 0 0. 9.
 15 1 1 2 0 0 -3.68146 2.87037 0.211996 4.99948 1.7768 0. -1
 -15 1 1 2 0 0 3.68146 -2.87037 -0.210923 4.99944 1.7768 0. 1
</event>
<event>
 4 80 1 -1 -1 -1
 11 -1 0 0 0 0 0 0 4.99966 4.99966 0 0. 9.
 -11 -1 0 0 0 0 0 0 -1.43051 1.43051 0 0. 9.
 15 1 1 2 0 0 0.268899 1.84593 0.922181 2.73641 1.7768 0. -1
 -15 1 1 2 0 0 -0.268899 -1.84593 2.64697 3.69377 1.7768 0. 1
</event>
<event>
 4 80 1 -1 -1 -1
 11 -1 0 0 0 0 0 0 4.99698 4.99698 0 0. 9.
 -11 -1 0 0 0 0 0 0 -4.99757 4.99757 0 0. 9.
 15 1 1 2 0 0 -1.03898 3.41085 3.0166 4.99709 1.7768 0. 1
 -15 1 1 2 0 0 1.03898 -3.41085 -3.01719 4.99745 1.7768 0. -1
</event>
<event>
 4 80 1 -1 -1 -1
 11 -1 0 0 0 0 0 0 5 5 0 0. 9.
 -11 -1 0 0 0 0 0 0 -5 5 0 0. 9.
 15 1 1 2 0 0 -0.0880945 1.88902 -4.27389 5 1.7768 0. -1
 -15 1 1 2 0 0 0.0880945 -1.88902 4.27388 5 1.7768 0. 1
</event>
<event>
 4 80 1 -1 -1 -1
 11 -1 0 0 0 0 0 0 4.99995 4.99995 0 0. 9.
 -11 -1 0 0 0 0 0 0 -5 5 0 0. 9.
 15 1 1 2 0 0 2.94426 2.85671 2.23883 4.99996 1.7768 0. 1
 -15 1 1 2 0 0 -2.94426 -2.85671 -2.23889 4.99999 1.7768 0. -1
</event>
<event>
 4 80 1 -1 -1 -1
 11 -1 0 0 0 0 0 0 5 5 0 0. 9.
 -11 -1 0 0 0 0 0 0 -5 5 0 0. 9.
 15 1 1 2 0 0 -0.483989 -3.81093 -2.66173 5 1.7768 0. -1
 -15 1 1 2 0 0 0.483989 3.81093 2.66173 5 1.7768 0. 1
</event>
<event>
 4 80 1 -1 -1 -1
 11 -1 0 0 0 0 0 0 5 5 0 0. 9.
 -11 -1 0 0 0 0 0 0 -4.56658 4.56658 0 0. 9.
 15 1 1 2 0 0 -0.809387 -3.2718 3.10332 4.91407 1.7768 0. 1
 -15 1 1 2 0 0 0.809387 3.2718 -2.6699 4.65251 1.7768 0. -1
</event>
<event>
 4 80 1 -1 -1 -1
 11 -1 0 0 0 0 0 0 4.98877 4.98877 0 0. 9.
 -11 -1 0 0 0 0 0 0 -5 5 0 0. 9.
 15 1 1 2 0 0 2.50804 2.87014 2.68848 4.99135 1.7768 0. -1
 -15 1 1 2 0 0 -2.50804 -2.87014 -2.69971 4.99741 1.7768 0. 1
</event>
<event>
 4 80 1 -1 -1 -1
 11 -1 0 0 0 0 0 0 5 5 0 0. 9.
 -11 -1 0 0 0 0 0 0 -4.99523 4.99523 0 0. 9.
 15 1 1 2 0 0 -3.13986 2.25845 2.62138 4.99886 1.7768 0. 1
 -15 1 1 2 0 0 3.13986 -2.25845 -2.6166 4.99636 1.7768 0. -1
</event>
<event>
 4 80 1 -1 -1 -1
 11 -1 0 0 0 0 0 0 5 5 0 0. 9.
 -11 -1 0 0 0 0 0 0 -4.99081 4.99081 0 0. 9.
 15 1 1 2 0 0 -3.70573 2.29714 1.67402 4.99694 1.7768 0. -1
 -15 1 1 2 0 0 3.70573 -2.29714 -1.66483 4.99387 1.7768 0. 1
</event>
<event>
 4 80 1 -1 -1 -1
 11 -1 0 0 0 0 0 0 5 5 0 0. 9.
 -11 -1 0 0 0 0 0 0 -4.99812 4.99812 0 0. 9.
 15 1 1 2 0 0 -0.73993 2.44632 -3.9107 4.99832 1.7768 0. 1
 -15 1 1 2 0 0 0.73993 -2.44632 3.91258 4.9998 1.7768 0. -1
</event>
<event>
 4 80 1 -1 -1 -1
 11 -1 0 0 0 0 0 0 5 5 0 0. 9.
 -11 -1 0 0 0 0 0 0 -5 5 0 0. 9.
 15 1 1 2 0 0 0.810448 3.26465 3.24461 5 1.7768 0. -1
 -15 1 1 2 0 0 -0.810448 -3.26465 -3.24461 5 1.7768 0. 1
</event>
<event>
 4 80 1 -1 -1 -1
 11 -1 0 0 0 0 0 0 5 5 0 0. 9.
 -11 -1 0 0 0 0 0 0 -5 5 0 0. 9.
 15 1 1 2 0 0 2.21039 3.2268 2.55817 5 1.7768 0. -1
 -15 1 1 2 0 0 -2.21039 -3.2268 -2.55817 5 1.7768 0. 1
</event>
<event>
 4 80 1 -1 -1 -1
 11 -1 0 0 0 0 0 0 4.99637 4.99637 0 0. 9.
 -11 -1 0 0 0 0 0 0 -4.99994 4.99994 0 0. 9.
 15 1 1 2 0 0 4.52627 0.225546 -1.13576 4.99856 1.7768 0. -1
 -15 1 1 2 0 0 -4.52627 -0.225546 1.13219 4.99775 1.7768 0. 1
</event>
<event>
 4 80 1 -1 -1 -1
 11 -1 0 0 0 0 0 0 4.99567 4.99567 0 0. 9.
 -11 -1 0 0 0 0 0 0 -5 5 0 0. 9.
 15 1 1 2 0 0 -3.41038 -0.947393 -3.05051 4.99916 1.7768 0. 1
 -15 1 1 2 0 0 3.41038 0.947393 3.04618 4.99652 1.7768 0. -1
</event>
<event>
 4 80 1 -1 -1 -1
 11 -1 0 0 0 0 0 0 5 5 0 0. 9.
 -11 -1 0 0 0 0 0 0 -4.62928 4.62928 0 0. 9.
 15 1 1 2 0 0 -3.18156 2.899 -1.02473 4.76806 1.7768 0. 1
 -15 1 1 2 0 0 3.18156 -2.899 1.39544 4.86123 1.7768 0. -1
</event>
<event>
 4 80 1 -1 -1 -1
 11 -1 0 0 0 0 0 0 4.99926 4.99926 0 0. 9.
 -11 -1 0 0 0 0 0 0 -5 5 0 0. 9.
 15 1 1 2 0 0 -2.91047 1.88866 3.13024 4.9994 1.7768 0. -1
 -15 1 1 2 0 0 2.91047 -1.88866 -3.13098 4.99986 1.7768 0. 1
</event>
<event>
 4 80 1 -1 -1 -1
 11 -1 0 0 0 0 0 0 4.99979 4.99979 0 0. 9.
 -11 -1 0 0 0 0 0 0 -5 5 0 0. 9.
 15 1 1 2 0 0 0.71611 -0.128364 -4.61659 4.99999 1.7768 0. 1
 -15 1 1 2 0 0 -0.71611 0.128364 4.61638 4.9998 1.7768 0. -1
</event>
<event>
 4 80 1 -1 -1 -1
 11 -1 0 0 0 0 0 0 5 5 0 0. 9.
 -11 -1 0 0 0 0 0 0 -5 5 0 0. 9.
 15 1 1 2 0 0 -2.57372 2.53943 2.96134 5 1.7768 0. -1
 -15 1 1 2 0 0 2.57372 -2.53943 -2.96134 5 1.7768 0. 1
</event>
<event>
 4 80 1 -1 -1 -1
 11 -1 0 0 0 0 0 0 4.99945 4.99945 0 0. 9.
 -11 -1 0 0 0 0 0 0 -5 5 0 0. 9.
 15 1 1 2 0 0 4.08812 -0.734275 2.14161 4.99961 1.7768 0. -1
 -15 1 1 2 0 0 -4.08812 0.734275 -2.14216 4.99984 1.7768 0. 1
</event>
<event>
 4 80 1 -1 -1 -1
 11 -1 0 0 0 0 0 0 4.99293 4.99293 0 0. 9.
 -11 -1 0 0 0 0 0 0 -5 5 0 0. 9.
 15 1 1 2 0 0 0.919861 -0.745282 -4.52076 4.99966 1.7768 0. -1
 -15 1 1 2 0 0 -0.919861 0.745282 4.5137 4.99327 1.7768 0. 1
</event>
<event>
 4 80 1 -1 -1 -1
 11 -1 0 0 0 0 0 0 5 5 0 0. 9.
 -11 -1 0 0 0 0 0 0 -5 5 0 0. 9.
 15 1 1 2 0 0 4.29991 0.064643 -1.83 5 1.7768 0. -1
 -15 1 1 2 0 0 -4.29991 -0.064643 1.83 5 1.7768 0. 1
</event>
<event>
 4 80 1 -1 -1 -1
 11 -1 0 0 0 0 0 0 4.48815 4.48815 0 0. 9.
 -11 -1 0 0 0 0 0 0 -3.33958 3.33958 0 0. 9.
 15 1 1 2 0 0 -1.52126 -2.79529 1.89353 4.10744 1.7768 0. -1
 -15 1 1 2 0 0 1.52126 2.79529 -0.744967 3.72029 1.7768 0. 1
</event>
<event>
 4 80 1 -1 -1 -1
 11 -1 0 0 0 0 0 0 5 5 0 0. 9.
 -11 -1 0 0 0 0 0 0 -5 5 0 0. 9.
 15 1 1 2 0 0 0.0434063 -2.04365 -4.20284 5 1.7768 0. -1
 -15 1 1 2 0 0 -0.0434063 2.04365 4.20284 5 1.7768 0. 1
</event>
<event>
 4 80 1 -1 -1 -1
 11 -1 0 0 0 0 0 0 5 5 0 0. 9.
 -11 -1 0 0 0 0 0 0 -5 5 0 0. 9.
 15 1 1 2 0 0 0.167667 0.28958 4.66158 5 1.7768 0. 1
 -15 1 1 2 0 0 -0.167667 -0.28958 -4.66158 5 1.7768 0. -1
</event>
<event>
 4 80 1 -1 -1 -1
 11 -1 0 0 0 0 0 0 5 5 0 0. 9.
 -11 -1 0 0 0 0 0 0 -5 5 0 0. 9.
 15 1 1 2 0 0 -1.70024 2.01556 -3.85862 5 1.7768 0. -1
 -15 1 1 2 0 0 1.70024 -2.01556 3.85862 5 1.7768 0. 1
</event>
<event>
 4 80 1 -1 -1 -1
 11 -1 0 0 0 0 0 0 5 5 0 0. 9.
 -11 -1 0 0 0 0 0 0 -4.99995 4.99995 0 0. 9.
 15 1 1 2 0 0 1.69599 -0.132182 -4.35292 4.99995 1.7768 0. -1
 -15 1 1 2 0 0 -1.69599 0.132182 4.35298 5 1.7768 0. 1
</event>
<event>
 4 80 1 -1 -1 -1
 11 -1 0 0 0 0 0 0 5 5 0 0. 9.
 -11 -1 0 0 0 0 0 0 -4.99897 4.99897 0 0. 9.
 15 1 1 2 0 0 2.93431 1.72063 -3.20361 4.99916 1.7768 0. 1
 -15 1 1 2 0 0 -2.93431 -1.72063 3.20463 4.99982 1.7768 0. -1
</event>
<event>
 4 80 1 -1 -1 -1
 11 -1 0 0 0 0 0 0 4.99999 4.99999 0 0. 9.
 -11 -1 0 0 0 0 0 0 -4.99472 4.99472 0 0. 9.
 15 1 1 2 0 0 -4.17143 0.661852 -1.99159 4.9963 1.7768 0. 1
 -15 1 1 2 0 0 4.17143 -0.661852 1.99685 4.9984 1.7768 0. -1
</event>
<event>
 4 80 1 -1 -1 -1
 11 -1 0 0 0 0 0 0 5 5 0 0. 9.
 -11 -1 0 0 0 0 0 0 -5 5 0 0. 9.
 15 1 1 2 0 0 -3.05382 2.89967 2.02692 5 1.7768 0. 1
 -15 1 1 2 0 0 3.05382 -2.89967 -2.02692 5 1.7768 0. -1
</event>
<event>
 4 80 1 -1 -1 -1
 11 -1 0 0 0 0 0 0 5 5 0 0. 9.
 -11 -1 0 0 0 0 0 0 -5 5 0 0. 9.
 15 1 1 2 0 0 -4.67329 0.0412086 -0.0308868 5 1.7768 0. 1
 -15 1 1 2 0 0 4.67329 -0.0412086 0.0308882 5 1.7768 0. -1
</event>
<event>
 4 80 1 -1 -1 -1
 11 -1 0 0 0 0 0 0 5 5 0 0. 9.
 -11 -1 0 0 0 0 0 0 -5 5 0 0. 9.
 15 1 1 2 0 0 2.19993 -2.42086 3.33797 5 1.7768 0. 1
 -15 1 1 2 0 0 -2.19993 2.42086 -3.33797 5 1.7768 0. -1
</event>
<event>
 4 80 1 -1 -1 -1
 11 -1 0 0 0 0 0 0 4.99986 4.99986 0 0. 9.
 -11 -1 0 0 0 0 0 0 -2.24549 2.24549 0 0. 9.
 15 1 1 2 0 0 -1.39613 -2.00518 -0.189389 3.02713 1.7768 0. -1
 -15 1 1 2 0 0 1.39613 2.00518 2.94375 4.21822 1.7768 0. 1
</event>
<event>
 4 80 1 -1 -1 -1
 11 -1 0 0 0 0 0 0 5 5 0 0. 9.
 -11 -1 0 0 0 0 0 0 -5 5 0 0. 9.
 15 1 1 2 0 0 3.74138 -2.09709 1.85648 5 1.7768 0. -1
 -15 1 1 2 0 0 -3.74138 2.09709 -1.85648 5 1.7768 0. 1
</event>
<event>
 4 80 1 -1 -1 -1
 11 -1 0 0 0 0 0 0 4.999 4.999 0 0. 9.
 -11 -1 0 0 0 0 0 0 -4.99873 4.99873 0 0. 9.
 15 1 1 2 0 0 -1.86595 -0.551537 4.24808 4.99898 1.7768 0. 1
 -15 1 1 2 0 0 1.86595 0.551537 -4.24781 4.99875 1.7768 0. -1
</event>
<event>
 4 80 1 -1 -1 -1
 11 -1 0 0 0 0 0 0 5 5 0 0. 9.
 -11 -1 0 0 0 0 0 0 -5 5 0 0. 9.
 15 1 1 2 0 0 3.81578 0.573317 -2.63693 5 1.7768 0. 1
 -15 1 1 2 0 0 -3.81578 -0.573317 2.63693 5 1.7768 0. -1
</event>
<event>
 4 80 1 -1 -1 -1
 11 -1 0 0 0 0 0 0 2.19872 2.19872 0 0. 9.
 -11 -1 0 0 0 0 0 0 -3.01123 3.01123 0 0. 9.
 15 1 1 2 0 0 0.298271 -0.308301 -2.23952 2.89088 1.7768 0. 1
 -15 1 1 2 0 0 -0.298271 0.308301 1.42701 2.31907 1.7768 0. -1
</event>
<event>
 4 80 1 -1 -1 -1
 11 -1 0 0 0 0 0 0 5 5 0 0. 9.
 -11 -1 0 0 0 0 0 0 -5 5 0 0. 9.
 15 1 1 2 0 0 -3.59475 2.47807 1.6671 5 1.7768 0. 1
 -15 1 1 2 0 0 3.59475 -2.47807 -1.6671 5 1.7768 0. -1
</event>
<event>
 4 80 1 -1 -1 -1
 11 -1 0 0 0 0 0 0 5 5 0 0. 9.
 -11 -1 0 0 0 0 0 0 -5 5 0 0. 9.
 15 1 1 2 0 0 1.9802 3.4546 2.44681 5 1.7768 0. 1
 -15 1 1 2 0 0 -1.9802 -3.4546 -2.44681 5 1.7768 0. -1
</event>
<event>
 4 80 1 -1 -1 -1
 11 -1 0 0 0 0 0 0 5 5 0 0. 9.
 -11 -1 0 0 0 0 0 0 -1.82153 1.82153 0 0. 9.
 15 1 1 2 0 0 -1.56798 -1.19919 -0.0302385 2.65618 1.7768 0. 1
 -15 1 1 2 0 0 1.56798 1.19919 3.20871 4.16535 1.7768 0. -1
</event>
<event>
 4 80 1 -1 -1 -1
 11 -1 0 0 0 0 0 0 5 5 0 0. 9.
 -11 -1 0 0 0 0 0 0 -5 5 0 0. 9.
 15 1 1 2 0 0 -2.09804 -2.71053 3.17703 5 1.7768 0. -1
 -15 1 1 2 0 0 2.09804 2.71053 -3.17703 5 1.7768 0. 1
</event>
<event>
 4 80 1 -1 -1 -1
 11 -1 0 0 0 0 0 0 0.829762 0.829762 0 0. 9.
 -11 -1 0 0 0 0 0 0 -4.99999 4.99999 0 0. 9.
 15 1 1 2 0 0 -0.498877 0.54451 -1.12972 2.23145 1.7768 0. 1
 -15 1 1 2 0 0 0.498877 -0.54451 -3.04051 3.59831 1.7768 0. -1
</event>
<event>
 4 80 1 -1 -1 -1
 11 -1 0 0 0 0 0 0 1.89313 1.89313 0 0. 9.
 -11 -1 0 0 0 0 0 0 -5 5 0 0. 9.
 15 1 1 2 0 0 -0.773369 2.01413 -2.99376 4.09575 1.7768 0. 1
 -15 1 1 2 0 0 0.773369 -2.01413 -0.113109 2.79738 1.7768 0. -1
</event>
<event>
 4 80 1 -1 -1 -1
 11 -1 0 0 0 0 0 0 4.99999 4.99999 0 0. 9.
 -11 -1 0 0 0 0 0 0 -4.44589 4.44589 0 0. 9.
 15 1 1 2 0 0 0.902318 2.11014 -3.44485 4.50462 1.7768 0. -1
 -15 1 1 2 0 0 -0.902318 -2.11014 3.99895 4.94127 1.7768 0. 1
</event>
<event>
 4 80 1 -1 -1 -1
 11 -1 0 0 0 0 0 0 5 5 0 0. 9.
 -11 -1 0 0 0 0 0 0 -5 5 0 0. 9.
 15 1 1 2 0 0 -0.267232 1.15034 4.5219 5 1.7768 0. -1
 -15 1 1 2 0 0 0.267232 -1.15034 -4.5219 5 1.7768 0. 1
</event>
<event>
 4 80 1 -1 -1 -1
 11 -1 0 0 0 0 0 0 4.89851 4.89851 0 0. 9.
 -11 -1 0 0 0 0 0 0 -5 5 0 0. 9.
 15 1 1 2 0 0 0.420924 -4.35344 1.43432 4.93403 1.7768 0. -1
 -15 1 1 2 0 0 -0.420924 4.35344 -1.53581 4.96448 1.7768 0. 1
</event>
<event>
 4 80 1 -1 -1 -1
 11 -1 0 0 0 0 0 0 4.99626 4.99626 0 0. 9.
 -11 -1 0 0 0 0 0 0 -5 5 0 0. 9.
 15 1 1 2 0 0 2.61689 -1.46098 -3.58531 4.99947 1.7768 0. -1
 -15 1 1 2 0 0 -2.61689 1.46098 3.58157 4.99679 1.7768 0. 1
</event>
<event>
 4 80 1 -1 -1 -1
 11 -1 0 0 0 0 0 0 5 5 0 0. 9.
 -11 -1 0 0 0 0 0 0 -4.99999 4.99999 0 0. 9.
 15 1 1 2 0 0 -0.95527 -3.10413 -3.36066 4.99999 1.7768 0. 1
 -15 1 1 2 0 0 0.95527 3.10413 3.36067 5 1.7768 0. -1
</event>
<event>
 4 80 1 -1 -1 -1
 11 -1 0 0 0 0 0 0 4.37557 4.37557 0 0. 9.
 -11 -1 0 0 0 0 0 0 -5 5 0 0. 9.
 15 1 1 2 0 0 -1.59405 -0.133499 3.71685 4.41945 1.7768 0. 1
 -15 1 1 2 0 0 1.59405 0.133499 -4.34127 4.95613 1.7768 0. -1
</event>
<event>
 4 80 1 -1 -1 -1
 11 -1 0 0 0 0 0 0 3.75092 3.75092 0 0. 9.
 -11 -1 0 0 0 0 0 0 -5 5 0 0. 9.
 15 1 1 2 0 0 -0.532651 -0.0958094 -4.57704 4.93963 1.7768 0. -1
 -15 1 1 2 0 0 0.532651 0.0958094 3.32796 3.8113 1.7768 0. 1
</event>
<event>
 4 80 1 -1 -1 -1
 11 -1 0 0 0 0 0 0 4.98757 4.98757 0 0. 9.
 -11 -1 0 0 0 0 0 0 -4.99983 4.99983 0 0. 9.
 15 1 1 2 0 0 -3.6072 -2.74479 1.1045 4.99233 1.7768 0. -1
 -15 1 1 2 0 0 3.6072 2.74479 -1.11676 4.99506 1.7768 0. 1
</event>
<event>
 4 80 1 -1 -1 -1
 11 -1 0 0 0 0 0 0 5 5 0 0. 9.
 -11 -1 0 0 0 0 0 0 -3.01333 3.01333 0 0. 9.
 15 1 1 2 0 0 2.41634 -0.481265 3.48753 4.62503 1.7768 0. 1
 -15 1 1 2 0 0 -2.41634 0.481265 -1.50085 3.3883 1.7768 0. -1
</event>
<event>
 4 80 1 -1 -1 -1
 11 -1 0 0 0 0 0 0 5 5 0 0. 9.
 -11 -1 0 0 0 0 0 0 -4.99881 4.99881 0 0. 9.
 15 1 1 2 0 0 -2.55772 -1.96182 -3.38255 4.999 1.7768 0. 1
 -15 1 1 2 0 0 2.55772 1.96182 3.38374 4.99981 1.7768 0. -1
</event>
<event>
 4 80 1 -1 -1 -1
 11 -1 0 0 0 0 0 0 5 5 0 0. 9.
 -11 -1 0 0 0 0 0 0 -4.7096 4.7096 0 0. 9.
 15 1 1 2 0 0 3.79406 0.167178 2.58912 4.92789 1.7768 0. -1
 -15 1 1 2 0 0 -3.79406 -0.167178 -2.29872 4.78171 1.7768 0. 1
</event>
<event>
 4 80 1 -1 -1 -1
 11 -1 0 0 0 0 0 0 5 5 0 0. 9.
 -11 -1 0 0 0 0 0 0 -5 5 0 0. 9.
 15 1 1 2 0 0 3.87199 -2.34064 1.17105 5 1.7768 0. -1
 -15 1 1 2 0 0 -3.87199 2.34064 -1.17105 5 1.7768 0. 1
</event>
<event>
 4 80 1 -1 -1 -1
 11 -1 0 0 0 0 0 0 5 5 0 0. 9.
 -11 -1 0 0 0 0 0 0 -0.812231 0.812231 0 0. 9.
 15 1 1 2 0 0 0.46516 0.499861 3.04739 3.59313 1.7768 0. -1
 -15 1 1 2 0 0 -0.46516 -0.499861 1.14038 2.2191 1.7768 0. 1
</event>
<event>
 4 80 1 -1 -1 -1
 11 -1 0 0 0 0 0 0 3.79585 3.79585 0 0. 9.
 -11 -1 0 0 0 0 0 0 -5 5 0 0. 9.
 15 1 1 2 0 0 1.99792 -2.04485 2.18979 4.01572 1.7768 0. -1
 -15 1 1 2 0 0 -1.99792 2.04485 -3.39394 4.78013 1.7768 0. 1
</event>
<event>
 4 80 1 -1 -1 -1
 11 -1 0 0 0 0 0 0 5 5 0 0. 9.
 -11 -1 0 0 0 0 0 0 -4.99273 4.99273 0 0. 9.
 15 1 1 2 0 0 2.91043 -3.30407 1.55876 4.9975 1.7768 0. -1
 -15 1 1 2 0 0 -2.91043 3.30407 -1.55149 4.99524 1.7768 0. 1
</event>
<event>
 4 80 1 -1 -1 -1
 11 -1 0 0 0 0 0 0 5 5 0 0. 9.
 -11 -1 0 0 0 0 0 0 -4.99231 4.99231 0 0. 9.
 15 1 1 2 0 0 -3.55237 2.90506 -0.859327 4.99549 1.7768 0. 1
 -15 1 1 2 0 0 3.55237 -2.90506 0.867021 4.99682 1.7768 0. -1
</event>
<event>
 4 80 1 -1 -1 -1
 11 -1 0 0 0 0 0 0 5 5 0 0. 9.
 -11 -1 0 0 0 0 0 0 -5 5 0 0. 9.
 15 1 1 2 0 0 4.22513 0.699591 1.87112 5 1.7768 0. 1
 -15 1 1 2 0 0 -4.22513 -0.699591 -1.87111 5 1.7768 0. -1
</event>
<event>
 4 80 1 -1 -1 -1
 11 -1 0 0 0 0 0 0 4.77863 4.77863 0 0. 9.
 -11 -1 0 0 0 0 0 0 -4.95992 4.95992 0 0. 9.
 15 1 1 2 0 0 2.74609 -1.55441 3.16364 4.8087 1.7768 0. -1
 -15 1 1 2 0 0 -2.74609 1.55441 -3.34492 4.92985 1.7768 0. 1
</event>
<event>
 4 80 1 -1 -1 -1
 11 -1 0 0 0 0 0 0 5 5 0 0. 9.
 -11 -1 0 0 0 0 0 0 -5 5 0 0. 9.
 15 1 1 2 0 0 -3.81007 -2.63105 -0.635026 5 1.7768 0. -1
 -15 1 1 2 0 0 3.81007 2.63105 0.635026 5 1.7768 0. 1
</event>
<event>
 4 80 1 -1 -1 -1
 11 -1 0 0 0 0 0 0 5 5 0 0. 9.
 -11 -1 0 0 0 0 0 0 -5 5 0 0. 9.
 15 1 1 2 0 0 -0.791664 -2.23849 4.0255 5 1.7768 0. -1
 -15 1 1 2 0 0 0.791664 2.23849 -4.0255 5 1.7768 0. 1
</event>
<event>
 4 80 1 -1 -1 -1
 11 -1 0 0 0 0 0 0 4.78907 4.78907 0 0. 9.
 -11 -1 0 0 0 0 0 0 -5 5 0 0. 9.
 15 1 1 2 0 0 -0.280918 -4.55056 -0.0718716 4.89381 1.7768 0. 1
 -15 1 1 2 0 0 0.280918 4.55056 -0.139054 4.89526 1.7768 0. -1
</event>
<event>
 4 80 1 -1 -1 -1
 11 -1 0 0 0 0 0 0 4.99999 4.99999 0 0. 9.
 -11 -1 0 0 0 0 0 0 -4.99841 4.99841 0 0. 9.
 15 1 1 2 0 0 -0.139625 -4.5746 -0.941436 4.99905 1.7768 0. 1
 -15 1 1 2 0 0 0.139625 4.5746 0.943009 4.99935 1.7768 0. -1
</event>
<event>
 4 80 1 -1 -1 -1
 11 -1 0 0 0 0 0 0 5 5 0 0. 9.
 -11 -1 0 0 0 0 0 0 -5 5 0 0. 9.
 15 1 1 2 0 0 -0.221315 -4.47243 1.33817 5 1.7768 0. -1
 -15 1 1 2 0 0 0.221315 4.47243 -1.33817 5 1.7768 0. 1
</event>
<event>
 4 80 1 -1 -1 -1
 11 -1 0 0 0 0 0 0 4.99914 4.99914 0 0. 9.
 -11 -1 0 0 0 0 0 0 -4.99229 4.99229 0 0. 9.
 15 1 1 2 0 0 1.36777 -1.73326 -4.11051 4.9929 1.7768 0. 1
 -15 1 1 2 0 0 -1.36777 1.73326 4.11736 4.99854 1.7768 0. -1
</event>
<event>
 4 80 1 -1 -1 -1
 11 -1 0 0 0 0 0 0 5 5 0 0. 9.
 -11 -1 0 0 0 0 0 0 -5 5 0 0. 9.
 15 1 1 2 0 0 -2.00149 2.1775 -3.61868 5 1.7768 0. -1
 -15 1 1 2 0 0 2.00149 -2.1775 3.61868 5 1.7768 0. 1
</event>
<event>
 4 80 1 -1 -1 -1
 11 -1 0 0 0 0 0 0 5 5 0 0. 9.
 -11 -1 0 0 0 0 0 0 -5 5 0 0. 9.
 15 1 1 2 0 0 -1.61948 3.60242 2.49842 5 1.7768 0. -1
 -15 1 1 2 0 0 1.61948 -3.60242 -2.49842 5 1.7768 0. 1
</event>
<event>
 4 80 1 -1 -1 -1
 11 -1 0 0 0 0 0 0 5 5 0 0. 9.
 -11 -1 0 0 0 0 0 0 -4.99993 4.99993 0 0. 9.
 15 1 1 2 0 0 1.89195 4.17119 -0.929273 4.99996 1.7768 0. -1
 -15 1 1 2 0 0 -1.89195 -4.17119 0.929344 4.99997 1.7768 0. 1
</event>
<event>
 4 80 1 -1 -1 -1
 11 -1 0 0 0 0 0 0 5 5 0 0. 9.
 -11 -1 0 0 0 0 0 0 -5 5 0 0. 9.
 15 1 1 2 0 0 -4.20789 1.79546 -0.955118 5 1.7768 0. 1
 -15 1 1 2 0 0 4.20789 -1.79546 0.955118 5 1.7768 0. -1
</event>
<event>
 4 80 1 -1 -1 -1
 11 -1 0 0 0 0 0 0 5 5 0 0. 9.
 -11 -1 0 0 0 0 0 0 -5 5 0 0. 9.
 15 1 1 2 0 0 -0.162175 1.16195 4.52392 5 1.7768 0. -1
 -15 1 1 2 0 0 0.162175 -1.16195 -4.52392 5 1.7768 0. 1
</event>
<event>
 4 80 1 -1 -1 -1
 11 -1 0 0 0 0 0 0 5 5 0 0. 9.
 -11 -1 0 0 0 0 0 0 -4.99999 4.99999 0 0. 9.
 15 1 1 2 0 0 4.60677 -0.685695 0.386895 5 1.7768 0. -1
 -15 1 1 2 0 0 -4.60677 0.685695 -0.386888 5 1.7768 0. 1
</event>
<event>
 4 80 1 -1 -1 -1
 11 -1 0 0 0 0 0 0 4.80666 4.80666 0 0. 9.
 -11 -1 0 0 0 0 0 0 -5 5 0 0. 9.
 15 1 1 2 0 0 3.36268 2.90764 0.958791 4.88252 1.7768 0. -1
 -15 1 1 2 0 0 -3.36268 -2.90764 -1.15213 4.92414 1.7768 0. 1
</event>
<event>
 4 80 1 -1 -1 -1
 11 -1 0 0 0 0 0 0 5 5 0 0. 9.
 -11 -1 0 0 0 0 0 0 -5 5 0 0. 9.
 15 1 1 2 0 0 2.37664 -3.04571 2.6301 5 1.7768 0. 1
 -15 1 1 2 0 0 -2.37664 3.04571 -2.6301 5 1.7768 0. -1
</event>
<event>
 4 80 1 -1 -1 -1
 11 -1 0 0 0 0 0 0 5 5 0 0. 9.
 -11 -1 0 0 0 0 0 0 -4.96879 4.96879 0 0. 9.
 15 1 1 2 0 0 3.97684 -2.29596 -0.75868 4.98197 1.7768 0. -1
 -15 1 1 2 0 0 -3.97684 2.29596 0.789886 4.98682 1.7768 0. 1
</event>
<event>
 4 80 1 -1 -1 -1
 11 -1 0 0 0 0 0 0 4.99983 4.99983 0 0. 9.
 -11 -1 0 0 0 0 0 0 -4.75893 4.75893 0 0. 9.
 15 1 1 2 0 0 -4.44121 0.709764 -0.518448 4.86361 1.7768 0. -1
 -15 1 1 2 0 0 4.44121 -0.709764 0.75935 4.89515 1.7768 0. 1
</event>
<event>
 4 80 1 -1 -1 -1
 11 -1 0 0 0 0 0 0 4.99998 4.99998 0 0. 9.
 -11 -1 0 0 0 0 0 0 -5 5 0 0. 9.
 15 1 1 2 0 0 -2.91668 -2.80128 -2.34266 5 1.7768 0. -1
 -15 1 1 2 0 0 2.91668 2.80128 2.34264 4.99999 1.7768 0. 1
</event>
<event>
 4 80 1 -1 -1 -1
 11 -1 0 0 0 0 0 0 5 5 0 0. 9.
 -11 -1 0 0 0 0 0 0 -3.63591 3.63591 0 0. 9.
 15 1 1 2 0 0 -3.78242 0.671971 1.20195 4.40008 1.7768 0. 1
 -15 1 1 2 0 0 3.78242 -0.671971 0.162138 4.23583 1.7768 0. -1
</event>
<event>
 4 80 1 -1 -1 -1
 11 -1 0 0 0 0 0 0 5 5 0 0. 9.
 -11 -1 0 0 0 0 0 0 -4.99991 4.99991 0 0. 9.
 15 1 1 2 0 0 -3.36106 2.45424 -2.12641 4.99994 1.7768 0. 1
 -15 1 1 2 0 0 3.36106 -2.45424 2.1265 4.99998 1.7768 0. -1
</event>
<event>
 4 80 1 -1 -1 -1
 11 -1 0 0 0 0 0 0 5 5 0 0. 9.
 -11 -1 0 0 0 0 0 0 -5 5 0 0. 9.
 15 1 1 2 0 0 1.34688 2.0008 4.00312 5 1.7768 0. -1
 -15 1 1 2 0 0 -1.34688 -2.0008 -4.00312 5 1.7768 0. 1
</event>
<event>
 4 80 1 -1 -1 -1
 11 -1 0 0 0 0 0 0 4.82512 4.82512 0 0. 9.
 -11 -1 0 0 0 0 0 0 -3.91405 3.91405 0 0. 9.
 15 1 1 2 0 0 2.36165 2.84719 -0.982049 4.21972 1.7768 0. 1
 -15 1 1 2 0 0 -2.36165 -2.84719 1.89311 4.51945 1.7768 0. -1
</event>
<event>
 4 80 1 -1 -1 -1
 11 -1 0 0 0 0 0 0 5 5 0 0. 9.
 -11 -1 0 0 0 0 0 0 -4.99948 4.99948 0 0. 9.
 15 1 1 2 0 0 -1.20559 1.00176 4.40284 4.99997 1.7768 0. 1
 -15 1 1 2 0 0 1.20559 -1.00176 -4.40232 4.99951 1.7768 0. -1
</event>
<event>
 4 80 1 -1 -1 -1
 11 -1 0 0 0 0 0 0 3.0792 3.0792 0 0. 9.
 -11 -1 0 0 0 0 0 0 -4.64277 4.64277 0 0. 9.
 15 1 1 2 0 0 -2.31986 -1.2848 1.28736 3.44202 1.7768 0. -1
 -15 1 1 2 0 0 2.31986 1.2848 -2.85093 4.27995 1.7768 0. 1
</event>
<event>
 4 80 1 -1 -1 -1
 11 -1 0 0 0 0 0 0 2.47593 2.47593 0 0. 9.
 -11 -1 0 0 0 0 0 0 -4.99143 4.99143 0 0. 9.
 15 1 1 2 0 0 1.2071 -2.57616 -0.140285 3.35724 1.7768 0. 1
 -15 1 1 2 0 0 -1.2071 2.57616 -2.37522 4.11012 1.7768 0. -1
</event>
<event>
 4 80 1 -1 -1 -1
 11 -1 0 0 0 0 0 0 5 5 0 0. 9.
 -11 -1 0 0 0 0 0 0 -5 5 0 0. 9.
 15 1 1 2 0 0 -0.46708 2.51595 -3.91077 5 1.7768 0. 1
 -15 1 1 2 0 0 0.46708 -2.51595 3.91077 5 1.7768 0. -1
</event>
<event>
 4 80 1 -1 -1 -1
 11 -1 0 0 0 0 0 0 5 5 0 0. 9.
 -11 -1 0 0 0 0 0 0 -3.64061 3.64061 0 0. 9.
 15 1 1 2 0 0 -0.152297 1.04263 4.45973 4.915 1.7768 0. -1
 -15 1 1 2 0 0 0.152297 -1.04263 -3.10034 3.7256 1.7768 0. 1
</event>
<event>
 4 80 1 -1 -1 -1
 11 -1 0 0 0 0 0 0 5 5 0 0. 9.
 -11 -1 0 0 0 0 0 0 -4.99063 4.99063 0 0. 9.
 15 1 1 2 0 0 -3.77141 2.73766 0.282341 4.99557 1.7768 0. 1
 -15 1 1 2 0 0 3.77141 -2.73766 -0.272968 4.99505 1.7768 0. -1
</event>
<event>
 4 80 1 -1 -1 -1
 11 -1 0 0 0 0 0 0 4.99523 4.99523 0 0. 9.
 -11 -1 0 0 0 0 0 0 -4.89047 4.89047 0 0. 9.
 15 1 1 2 0 0 4.01347 1.40309 -1.73509 4.92391 1.7768 0. 1
 -15 1 1 2 0 0 -4.01347 -1.40309 1.83985 4.96179 1.7768 0. -1
</event>
<event>
 4 80 1 -1 -1 -1
 11 -1 0 0 0 0 0 0 4.90285 4.90285 0 0. 9.
 -11 -1 0 0 0 0 0 0 -5 5 0 0. 9.
 15 1 1 2 0 0 -0.860864 0.215778 4.48693 4.90693 1.7768 0. 1
 -15 1 1 2 0 0 0.860864 -0.215778 -4.58409 4.99592 1.7768 0. -1
</event>
<event>
 4 80 1 -1 -1 -1
 11 -1 0 0 0 0 0 0 4.99688 4.99688 0 0. 9.
 -11 -1 0 0 0 0 0 0 -4.8814 4.8814 0 0. 9.
 15 1 1 2 0 0 -2.40519 2.87341 2.73983 4.9705 1.7768 0. 1
 -15 1 1 2 0 0 2.40519 -2.87341 -2.62435 4.90779 1.7768 0. -1
</event>
<event>
 4 80 1 -1 -1 -1
 11 -1 0 0 0 0 0 0 5 5 0 0. 9.
 -11 -1 0 0 0 0 0 0 -5 5 0 0. 9.
 15 1 1 2 0 0 -0.653265 4.44861 1.27492 5 1.7768 0. 1
 -15 1 1 2 0 0 0.653265 -4.44861 -1.27492 5 1.7768 0. -1
</event>
<event>
 4 80 1 -1 -1 -1
 11 -1 0 0 0 0 0 0 4.95901 4.95901 0 0. 9.
 -11 -1 0 0 0 0 0 0 -5 5 0 0. 9.
 15 1 1 2 0 0 0.418486 -1.68015 4.29687 4.96174 1.7768 0. 1
 -15 1 1 2 0 0 -0.418486 1.68015 -4.33786 4.99727 1.7768 0. -1
</event>
<event>
 4 80 1 -1 -1 -1
 11 -1 0 0 0 0 0 0 4.99995 4.99995 0 0. 9.
 -11 -1 0 0 0 0 0 0 -5 5 0 0. 9.
 15 1 1 2 0 0 0.625462 3.26361 3.28626 4.99996 1.7768 0. -1
 -15 1 1 2 0 0 -0.625462 -3.26361 -3.28631 4.99999 1.7768 0. 1
</event>
<event>
 4 80 1 -1 -1 -1
 11 -1 0 0 0 0 0 0 4.56579 4.56579 0 0. 9.
 -11 -1 0 0 0 0 0 0 -5 5 0 0. 9.
 15 1 1 2 0 0 3.61456 2.37012 0.778292 4.73771 1.7768 0. 1
 -15 1 1 2 0 0 -3.61456 -2.37012 -1.2125 4.82808 1.7768 0. -1
</event>
<event>
 4 80 1 -1 -1 -1
 11 -1 0 0 0 0 0 0 4.98526 4.98526 0 0. 9.
 -11 -1 0 0 0 0 0 0 -5 5 0 0. 9.
 15 1 1 2 0 0 -3.4793 -1.62648 2.64171 4.98872 1.7768 0. -1
 -15 1 1 2 0 0 3.4793 1.62648 -2.65645 4.99654 1.7768 0. 1
</event>
<event>
 4 80 1 -1 -1 -1
 11 -1 0 0 0 0 0 0 5 5 0 0. 9.
 -11 -1 0 0 0 0 0 0 -5 5 0 0. 9.
 15 1 1 2 0 0 0.268612 -1.92475 4.25034 5 1.7768 0. 1
 -15 1 1 2 0 0 -0.268612 1.92475 -4.25035 5 1.7768 0. -1
</event>
<event>
 4 80 1 -1 -1 -1
 11 -1 0 0 0 0 0 0 5 5 0 0. 9.
 -11 -1 0 0 0 0 0 0 -5 5 0 0. 9.
 15 1 1 2 0 0 -2.03218 -4.00394 -1.29652 5 1.7768 0. -1
 -15 1 1 2 0 0 2.03218 4.00394 1.29652 5 1.7768 0. 1
</event>
<event>
 4 80 1 -1 -1 -1
 11 -1 0 0 0 0 0 0 4.99999 4.99999 0 0. 9.
 -11 -1 0 0 0 0 0 0 -5 5 0 0. 9.
 15 1 1 2 0 0 -2.73907 -2.70135 2.65375 4.99999 1.7768 0. 1
 -15 1 1 2 0 0 2.73907 2.70135 -2.65376 5 1.7768 0. -1
</event>
<event>
 4 80 1 -1 -1 -1
 11 -1 0 0 0 0 0 0 4.37667 4.37667 0 0. 9.
 -11 -1 0 0 0 0 0 0 -5 5 0 0. 9.
 15 1 1 2 0 0 -3.88269 -1.30275 1.08898 4.59522 1.7768 0. 1
 -15 1 1 2 0 0 3.88269 1.30275 -1.71232 4.78144 1.7768 0. -1
</event>
<event>
 4 80 1 -1 -1 -1
 11 -1 0 0 0 0 0 0 4.99926 4.99926 0 0. 9.
 -11 -1 0 0 0 0 0 0 -5 5 0 0. 9.
 15 1 1 2 0 0 -2.13728 -2.97534 2.90101 4.99942 1.7768 0. 1
 -15 1 1 2 0 0 2.13728 2.97534 -2.90174 4.99985 1.7768 0. -1
</event>
<event>
 4 80 1 -1 -1 -1
 11 -1 0 0 0 0 0 0 4.99997 4.99997 0 0. 9.
 -11 -1 0 0 0 0 0 0 -5 5 0 0. 9.
 15 1 1 2 0 0 3.38079 3.20295 0.391733 4.99998 1.7768 0. -1
 -15 1 1 2 0 0 -3.38079 -3.20295 -0.391765 4.99999 1.7768 0. 1
</event>
<event>
 4 80 1 -1 -1 -1
 11 -1 0 0 0 0 0 0 5 5 0 0. 9.
 -11 -1 0 0 0 0 0 0 -5 5 0 0. 9.
 15 1 1 2 0 0 0.570142 1.44194 -4.40886 5 1.7768 0. -1
 -15 1 1 2 0 0 -0.570142 -1.44194 4.40886 5 1.7768 0. 1
</event>
<event>
 4 80 1 -1 -1 -1
 11 -1 0 0 0 0 0 0 2.58419 2.58419 0 0. 9.
 -11 -1 0 0 0 0 0 0 -5 5 0 0. 9.
 15 1 1 2 0 0 -1.05384 1.28301 1.58453 2.90261 1.7768 0. -1
 -15 1 1 2 0 0 1.05384 -1.28301 -4.00034 4.68157 1.7768 0. 1
</event>
<event>
 4 80 1 -1 -1 -1
 11 -1 0 0 0 0 0 0 4.90674 4.90674 0 0. 9.
 -11 -1 0 0 0 0 0 0 -4.86405 4.86405 0 0. 9.
 15 1 1 2 0 0 2.02957 -0.103273 -4.05044 4.86761 1.7768 0. 1
 -15 1 1 2 0 0 -2.02957 0.103273 4.09313 4.90319 1.7768 0. -1
</event>
<event>
 4 80 1 -1 -1 -1
 11 -1 0 0 0 0 0 0 5 5 0 0. 9.
 -11 -1 0 0 0 0 0 0 -5 5 0 0. 9.
 15 1 1 2 0 0 3.27557 -2.36228 2.35214 5 1.7768 0. -1
 -15 1 1 2 0 0 -3.27557 2.36228 -2.35214 5 1.7768 0. 1
</event>
<event>
 4 80 1 -1 -1 -1
 11 -1 0 0 0 0 0 0 4.59572 4.59572 0 0. 9.
 -11 -1 0 0 0 0 0 0 -4.99415 4.99415 0 0. 9.
 15 1 1 2 0 0 -2.41435 2.32025 -3.13114 4.91675 1.7768 0. 1
 -15 1 1 2 0 0 2.41435 -2.32025 2.73272 4.67313 1.7768 0. -1
</event>
<event>
 4 80 1 -1 -1 -1
 11 -1 0 0 0 0 0 0 5 5 0 0. 9.
 -11 -1 0 0 0 0 0 0 -4.68045 4.68045 0 0. 9.
 15 1 1 2 0 0 4.23926 -1.12364 1.16563 4.87343 1.7768 0. -1
 -15 1 1 2 0 0 -4.23926 1.12364 -0.846085 4.80702 1.7768 0. 1
</event>
<event>
 4 80 1 -1 -1 -1
 11 -1 0 0 0 0 0 0 5 5 0 0. 9.
 -11 -1 0 0 0 0 0 0 -5 5 0 0. 9.
 15 1 1 2 0 0 -1.46647 1.74957 -4.07808 5 1.7768 0. -1
 -15 1 1 2 0 0 1.46647 -1.74957 4.07808 5 1.7768 0. 1
</event>
<event>
 4 80 1 -1 -1 -1
 11 -1 0 0 0 0 0 0 5 5 0 0. 9.
 -11 -1 0 0 0 0 0 0 -5 5 0 0. 9.
 15 1 1 2 0 0 -2.42989 0.43474 3.96849 5 1.7768 0. -1
 -15 1 1 2 0 0 2.42989 -0.43474 -3.96849 5 1.7768 0. 1
</event>
<event>
 4 80 1 -1 -1 -1
 11 -1 0 0 0 0 0 0 4.53476 4.53476 0 0. 9.
 -11 -1 0 0 0 0 0 0 -5 5 0 0. 9.
 15 1 1 2 0 0 -1.71288 3.24239 2.23385 4.64703 1.7768 0. 1
 -15 1 1 2 0 0 1.71288 -3.24239 -2.69909 4.88773 1.7768 0. -1
</event>
<event>
 4 80 1 -1 -1 -1
 11 -1 0 0 0 0 0 0 5 5 0 0. 9.
 -11 -1 0 0 0 0 0 0 -4.99837 4.99837 0 0. 9.
 15 1 1 2 0 0 3.4549 -2.78271 1.46857 4.99942 1.7768 0. -1
 -15 1 1 2 0 0 -3.4549 2.78271 -1.46694 4.99895 1.7768 0. 1
</event>
<event>
 4 80 1 -1 -1 -1
 11 -1 0 0 0 0 0 0 3.20371 3.20371 0 0. 9.
 -11 -1 0 0 0 0 0 0 -5 5 0 0. 9.
 15 1 1 2 0 0 -2.20783 -2.10047 1.03946 3.67759 1.7768 0. 1
 -15 1 1 2 0 0 2.20783 2.10047 -2.83575 4.52611 1.7768 0. -1
</event>
<event>
 4 80 1 -1 -1 -1
 11 -1 0 0 0 0 0 0 3.54526 3.54526 0 0. 9.
 -11 -1 0 0 0 0 0 0 -4.97855 4.97855 0 0. 9.
 15 1 1 2 0 0 -2.46778 -1.05387 2.02271 3.80127 1.7768 0. 1
 -15 1 1 2 0 0 2.46778 1.05387 -3.45601 4.72253 1.7768 0. -1
</event>
<event>
 4 80 1 -1 -1 -1
 11 -1 0 0 0 0 0 0 4.72929 4.72929 0 0. 9.
 -11 -1 0 0 0 0 0 0 -4.99998 4.99998 0 0. 9.
 15 1 1 2 0 0 2.94658 -2.96006 -1.88082 4.9132 1.7768 0. -1
 -15 1 1 2 0 0 -2.94658 2.96006 1.61013 4.81607 1.7768 0. 1
</event>
<event>
 4 80 1 -1 -1 -1
 11 -1 0 0 0 0 0 0 4.99999 4.99999 0 0. 9.
 -11 -1 0 0 0 0 0 0 -5 5 0 0. 9.
 15 1 1 2 0 0 -1.83175 -2.01295 3.79933 4.99999 1.7768 0. -1
 -15 1 1 2 0 0 1.83175 2.01295 -3.79934 5 1.7768 0. 1
</event>
<event>
 4 80 1 -1 -1 -1
 11 -1 0 0 0 0 0 0 4.98555 4.98555 0 0. 9.
 -11 -1 0 0 0 0 0 0 -5 5 0 0. 9.
 15 1 1 2 0 0 2.42052 1.25184 3.78013 4.9873 1.7768 0. -1
 -15 1 1 2 0 0 -2.42052 -1.25184 -3.79457 4.99826 1.7768 0. 1
</event>
<event>
 4 80 1 -1 -1 -1
 11 -1 0 0 0 0 0 0 1.57374 1.57374 0 0. 9.
 -11 -1 0 0 0 0 0 0 -5 5 0 0. 9.
 15 1 1 2 0 0 -1.15288 1.35364 -3.17169 4.04707 1.7768 0. -1
 -15 1 1 2 0 0 1.15288 -1.35364 -0.254579 2.52666 1.7768 0. 1
</event>
<event>
 4 80 1 -1 -1 -1
 11 -1 0 0 0 0 0 0 2.00499 2.00499 0 0. 9.
 -11 -1 0 0 0 0 0 0 -5 5 0 0. 9.
 15 1 1 2 0 0 0.579663 -1.56841 -3.72955 4.45682 1.7768 0. 1
 -15 1 1 2 0 0 -0.579663 1.56841 0.734546 2.54818 1.7768 0. -1
</event>
<event>
 4 80 1 -1 -1 -1
 11 -1 0 0 0 0 0 0 5 5 0 0. 9.
 -11 -1 0 0 0 0 0 0 -4.99624 4.99624 0 0. 9.
 15 1 1 2 0 0 2.32799 3.40798 2.19038 4.99894 1.7768 0. 1
 -15 1 1 2 0 0 -2.32799 -3.40798 -2.18662 4.99729 1.7768 0. -1
</event>
<event>
 4 80 1 -1 -1 -1
 11 -1 0 0 0 0 0 0 5 5 0 0. 9.
 -11 -1 0 0 0 0 0 0 -5 5 0 0. 9.
 15 1 1 2 0 0 -1.41226 3.06658 3.2317 5 1.7768 0. -1
 -15 1 1 2 0 0 1.41226 -3.06658 -3.2317 5 1.7768 0. 1
</event>
<event>
 4 80 1 -1 -1 -1
 11 -1 0 0 0 0 0 0 5 5 0 0. 9.
 -11 -1 0 0 0 0 0 0 -5 5 0 0. 9.
 15 1 1 2 0 0 -3.02471 -1.82115 -3.06216 5 1.7768 0. 1
 -15 1 1 2 0 0 3.02471 1.82115 3.06216 5 1.7768 0. -1
</event>
<event>
 4 80 1 -1 -1 -1
 11 -1 0 0 0 0 0 0 4.94747 4.94747 0 0. 9.
 -11 -1 0 0 0 0 0 0 -5 5 0 0. 9.
 15 1 1 2 0 0 -2.58145 3.43786 -1.78608 4.98303 1.7768 0. 1
 -15 1 1 2 0 0 2.58145 -3.43786 1.73356 4.96444 1.7768 0. -1
</event>
<event>
 4 80 1 -1 -1 -1
 11 -1 0 0 0 0 0 0 4.99986 4.99986 0 0. 9.
 -11 -1 0 0 0 0 0 0 -4.02982 4.02982 0 0. 9.
 15 1 1 2 0 0 2.7634 1.65015 3.07516 4.79309 1.7768 0. 1
 -15 1 1 2 0 0 -2.7634 -1.65015 -2.10513 4.23659 1.7768 0. -1
</event>
<event>
 4 80 1 -1 -1 -1
 11 -1 0 0 0 0 0 0 5 5 0 0. 9.
 -11 -1 0 0 0 0 0 0 -4.9996 4.9996 0 0. 9.
 15 1 1 2 0 0 -1.93349 4.24503 -0.285404 4.99979 1.7768 0. 1
 -15 1 1 2 0 0 1.93349 -4.24503 0.285808 4.99981 1.7768 0. -1
</event>
<event>
 4 80 1 -1 -1 -1
 11 -1 0 0 0 0 0 0 4.99992 4.99992 0 0. 9.
 -11 -1 0 0 0 0 0 0 -4.99948 4.99948 0 0. 9.
 15 1 1 2 0 0 -3.77706 -0.813425 -2.62874 4.99959 1.7768 0. 1
 -15 1 1 2 0 0 3.77706 0.813425 2.62918 4.99982 1.7768 0. -1
</event>
<event>
 4 80 1 -1 -1 -1
 11 -1 0 0 0 0 0 0 5 5 0 0. 9.
 -11 -1 0 0 0 0 0 0 -5 5 0 0. 9.
 15 1 1 2 0 0 1.79025 -2.32367 3.63838 5 1.7768 0. 1
 -15 1 1 2 0 0 -1.79025 2.32367 -3.63838 5 1.7768 0. -1
</event>
<event>
 4 80 1 -1 -1 -1
 11 -1 0 0 0 0 0 0 5 5 0 0. 9.
 -11 -1 0 0 0 0 0 0 -0.707786 0.707786 0 0. 9.
 15 1 1 2 0 0 0.381254 0.0153489 1.40973 2.30014 1.7768 0. 1
 -15 1 1 2 0 0 -0.381254 -0.0153489 2.88248 3.40764 1.7768 0. -1
</event>
<event>
 4 80 1 -1 -1 -1
 11 -1 0 0 0 0 0 0 4.99168 4.99168 0 0. 9.
 -11 -1 0 0 0 0 0 0 -4.99982 4.99982 0 0. 9.
 15 1 1 2 0 0 0.0570329 -0.939132 -4.57731 4.99947 1.7768 0. 1
 -15 1 1 2 0 0 -0.0570329 0.939132 4.56918 4.99203 1.7768 0. -1
</event>
<event>
 4 80 1 -1 -1 -1
 11 -1 0 0 0 0 0 0 5 5 0 0. 9.
 -11 -1 0 0 0 0 0 0 -4.98898 4.98898 0 0. 9.
 15 1 1 2 0 0 2.95415 -3.25905 -1.55616 4.99277 1.7768 0. 1
 -15 1 1 2 0 0 -2.95415 3.25905 1.56718 4.99621 1.7768 0. -1
</event>
<event>
 4 80 1 -1 -1 -1
 11 -1 0 0 0 0 0 0 5 5 0 0. 9.
 -11 -1 0 0 0 0 0 0 -4.39368 4.39368 0 0. 9.
 15 1 1 2 0 0 -1.75175 1.22766 4.08396 4.94087 1.7768 0. 1
 -15 1 1 2 0 0 1.75175 -1.22766 -3.47764 4.45281 1.7768 0. -1
</event>
<event>
 4 80 1 -1 -1 -1
 11 -1 0 0 0 0 0 0 4.99849 4.99849 0 0. 9.
 -11 -1 0 0 0 0 0 0 -5 5 0 0. 9.
 15 1 1 2 0 0 -1.89946 3.43716 2.53158 4.99886 1.7768 0. 1
 -15 1 1 2 0 0 1.89946 -3.43716 -2.53309 4.99963 1.7768 0. -1
</event>
<event>
 4 80 1 -1 -1 -1
 11 -1 0 0 0 0 0 0 5 5 0 0. 9.
 -11 -1 0 0 0 0 0 0 -4.84352 4.84352 0 0. 9.
 15 1 1 2 0 0 2.00876 -1.92609 -3.57118 4.86375 1.7768 0. -1
 -15 1 1 2 0 0 -2.00876 1.92609 3.72766 4.97977 1.7768 0. 1
</event>
<event>
 4 80 1 -1 -1 -1
 11 -1 0 0 0 0 0 0 5 5 0 0. 9.
 -11 -1 0 0 0 0 0 0 -4.99594 4.99594 0 0. 9.
 15 1 1 2 0 0 2.10122 -3.24407 -2.62148 4.9969 1.7768 0. 1
 -15 1 1 2 0 0 -2.10122 3.24407 2.62555 4.99903 1.7768 0. -1
</event>
<event>
 4 80 1 -1 -1 -1
 11 -1 0 0 0 0 0 0 5 5 0 0. 9.
 -11 -1 0 0 0 0 0 0 -4.99379 4.99379 0 0. 9.
 15 1 1 2 0 0 3.37229 -2.97811 1.25599 4.99767 1.7768 0. -1
 -15 1 1 2 0 0 -3.37229 2.97811 -1.24978 4.99612 1.7768 0. 1
</event>
<event>
 4 80 1 -1 -1 -1
 11 -1 0 0 0 0 0 0 5 5 0 0. 9.
 -11 -1 0 0 0 0 0 0 -5 5 0 0. 9.
 15 1 1 2 0 0 -2.27049 2.80344 2.97118 5 1.7768 0. 1
 -15 1 1 2 0 0 2.27049 -2.80344 -2.97118 5 1.7768 0. -1
</event>
<event>
 4 80 1 -1 -1 -1
 11 -1 0 0 0 0 0 0 5 5 0 0. 9.
 -11 -1 0 0 0 0 0 0 -5 5 0 0. 9.
 15 1 1 2 0 0 -1.4506 -3.43511 -2.81746 5 1.7768 0. -1
 -15 1 1 2 0 0 1.4506 3.43511 2.81746 5 1.7768 0. 1
</event>
<event>
 4 80 1 -1 -1 -1
 11 -1 0 0 0 0 0 0 3.47724 3.47724 0 0. 9.
 -11 -1 0 0 0 0 0 0 -5 5 0 0. 9.
 15 1 1 2 0 0 3.05335 1.88955 -1.93595 4.44961 1.7768 0. -1
 -15 1 1 2 0 0 -3.05335 -1.88955 0.413186 4.02763 1.7768 0. 1
</event>
<event>
 4 80 1 -1 -1 -1
 11 -1 0 0 0 0 0 0 4.92022 4.92022 0 0. 9.
 -11 -1 0 0 0 0 0 0 -5 5 0 0. 9.
 15 1 1 2 0 0 -0.344869 -4.52126 0.899629 4.95255 1.7768 0. -1
 -15 1 1 2 0 0 0.344869 4.52126 -0.979411 4.96766 1.7768 0. 1
</event>
<event>
 4 80 1 -1 -1 -1
 11 -1 0 0 0 0 0 0 5 5 0 0. 9.
 -11 -1 0 0 0 0 0 0 -4.99186 4.99186 0 0. 9.
 15 1 1 2 0 0 4.12895 1.54684 -1.53235 4.99468 1.7768 0. 1
 -15 1 1 2 0 0 -4.12895 -1.54684 1.54049 4.99718 1.7768 0. -1
</event>
<event>
 4 80 1 -1 -1 -1
 11 -1 0 0 0 0 0 0 4.71669 4.71669 0 0. 9.
 -11 -1 0 0 0 0 0 0 -4.92065 4.92065 0 0. 9.
 15 1 1 2 0 0 0.0728221 3.35043 -3.07262 4.88154 1.7768 0. 1
 -15 1 1 2 0 0 -0.0728221 -3.35043 2.86867 4.7558 1.7768 0. -1
</event>
<event>
 4 80 1 -1 -1 -1
 11 -1 0 0 0 0 0 0 5 5 0 0. 9.
 -11 -1 0 0 0 0 0 0 -5 5 0 0. 9.
 15 1 1 2 0 0 1.19054 0.807392 4.44668 5 1.7768 0. 1
 -15 1 1 2 0 0 -1.19054 -0.807392 -4.44668 5 1.7768 0. -1
</event>
<event>
 4 80 1 -1 -1 -1
 11 -1 0 0 0 0 0 0 5 5 0 0. 9.
 -11 -1 0 0 0 0 0 0 -5 5 0 0. 9.
 15 1 1 2 0 0 -1.50455 3.65023 2.50089 5 1.7768 0. -1
 -15 1 1 2 0 0 1.50455 -3.65023 -2.50089 5 1.7768 0. 1
</event>
<event>
 4 80 1 -1 -1 -1
 11 -1 0 0 0 0 0 0 4.94991 4.94991 0 0. 9.
 -11 -1 0 0 0 0 0 0 -5 5 0 0. 9.
 15 1 1 2 0 0 -2.50225 -3.49353 1.74297 4.96605 1.7768 0. 1
 -15 1 1 2 0 0 2.50225 3.49353 -1.79306 4.98385 1.7768 0. -1
</event>
<event>
 4 80 1 -1 -1 -1
 11 -1 0 0 0 0 0 0 4.99999 4.99999 0 0. 9.
 -11 -1 0 0 0 0 0 0 -5 5 0 0. 9.
 15 1 1 2 0 0 1.64198 0.952331 4.27073 4.99999 1.7768 0. 1
 -15 1 1 2 0 0 -1.64198 -0.952331 -4.27074 5 1.7768 0. -1
</event>
<event>
 4 80 1 -1 -1 -1
 11 -1 0 0 0 0 0 0 4.99528 4.99528 0 0. 9.
 -11 -1 0 0 0 0 0 0 -5 5 0 0. 9.
 15 1 1 2 0 0 2.58499 1.55124 -3.57029 4.99932 1.7768 0. 1
 -15 1 1 2 0 0 -2.58499 -1.55124 3.56557 4.99595 1.7768 0. -1
</event>
<event>
 4 80 1 -1 -1 -1
 11 -1 0 0 0 0 0 0 5 5 0 0. 9.
 -11 -1 0 0 0 0 0 0 -4.70028 4.70028 0 0. 9.
 15 1 1 2 0 0 1.07362 2.1968 3.9418 4.9673 1.7768 0. -1
 -15 1 1 2 0 0 -1.07362 -2.1968 -3.64208 4.73298 1.7768 0. 1
</event>
<event>
 4 80 1 -1 -1 -1
 11 -1 0 0 0 0 0 0 0.706539 0.706539 0 0. 9.
 -11 -1 0 0 0 0 0 0 -5 5 0 0. 9.
 15 1 1 2 0 0 -0.600849 -0.0361345 -2.3174 2.98168 1.7768 0. 1
 -15 1 1 2 0 0 0.600849 0.0361345 -1.97606 2.72486 1.7768 0. -1
</event>
<event>
 4 80 1 -1 -1 -1
 11 -1 0 0 0 0 0 0 5 5 0 0. 9.
 -11 -1 0 0 0 0 0 0 -4.99998 4.99998 0 0. 9.
 15 1 1 2 0 0 -4.35784 0.494862 1.61447 4.99999 1.7768 0. -1
 -15 1 1 2 0 0 4.35784 -0.494862 -1.61446 4.99999 1.7768 0. 1
</event>
<event>
 4 80 1 -1 -1 -1
 11 -1 0 0 0 0 0 0 4.99988 4.99988 0 0. 9.
 -11 -1 0 0 0 0 0 0 -5 5 0 0. 9.
 15 1 1 2 0 0 2.03999 3.01498 -2.93093 4.99997 1.7768 0. -1
 -15 1 1 2 0 0 -2.03999 -3.01498 2.9308 4.9999 1.7768 0. 1
</event>
<event>
 4 80 1 -1 -1 -1
 11 -1 0 0 0 0 0 0 4.99999 4.99999 0 0. 9.
 -11 -1 0 0 0 0 0 0 -5 5 0 0. 9.
 15 1 1 2 0 0 1.64308 -1.7821 -3.99583 5 1.7768 0. 1
 -15 1 1 2 0 0 -1.64308 1.7821 3.99582 4.99999 1.7768 0. -1
</event>
<event>
 4 80 1 -1 -1 -1
 11 -1 0 0 0 0 0 0 5 5 0 0. 9.
 -11 -1 0 0 0 0 0 0 -3.08336 3.08336 0 0. 9.
 15 1 1 2 0 0 -0.844854 -1.00782 -2.38187 3.24969 1.7768 0. -1
 -15 1 1 2 0 0 0.844854 1.00782 4.29851 4.83367 1.7768 0. 1
</event>
<event>
 4 80 1 -1 -1 -1
 11 -1 0 0 0 0 0 0 3.49366 3.49366 0 0. 9.
 -11 -1 0 0 0 0 0 0 -4.99563 4.99563 0 0. 9.
 15 1 1 2 0 0 0.723785 -2.40116 2.12383 3.73602 1.7768 0. -1
 -15 1 1 2 0 0 -0.723785 2.40116 -3.6258 4.75327 1.7768 0. 1
</event>
<event>
 4 80 1 -1 -1 -1
 11 -1 0 0 0 0 0 0 5 5 0 0. 9.
 -11 -1 0 0 0 0 0 0 -4.99732 4.99732 0 0. 9.
 15 1 1 2 0 0 -0.00484998 1.08412 4.54596 4.99988 1.7768 0. 1
 -15 1 1 2 0 0 0.00484998 -1.08412 -4.54328 4.99744 1.7768 0. -1
</event>
<event>
 4 80 1 -1 -1 -1
 11 -1 0 0 0 0 0 0 4.98261 4.98261 0 0. 9.
 -11 -1 0 0 0 0 0 0 -5 5 0 0. 9.
 15 1 1 2 0 0 -1.67195 0.951047 4.24048 4.98391 1.7768 0. -1
 -15 1 1 2 0 0 1.67195 -0.951047 -4.25787 4.99871 1.7768 0. 1
</event>
<event>
 4 80 1 -1 -1 -1
 11 -1 0 0 0 0 0 0 5 5 0 0. 9.
 -11 -1 0 0 0 0 0 0 -3.9589 3.9589 0 0. 9.
 15 1 1 2 0 0 -1.91357 1.79759 3.66333 4.84467 1.7768 0. -1
 -15 1 1 2 0 0 1.91357 -1.79759 -2.62222 4.11423 1.7768 0. 1
</event>
<event>
 4 80 1 -1 -1 -1
 11 -1 0 0 0 0 0 0 5 5 0 0. 9.
 -11 -1 0 0 0 0 0 0 -4.99996 4.99996 0 0. 9.
 15 1 1 2 0 0 4.01838 1.89188 -1.45445 4.99998 1.7768 0. 1
 -15 1 1 2 0 0 -4.01838 -1.89188 1.45449 4.99999 1.7768 0. -1
</event>
<event>
 4 80 1 -1 -1 -1
 11 -1 0 0 0 0 0 0 4.99999 4.99999 0 0. 9.
 -11 -1 0 0 0 0 0 0 -4.99003 4.99003 0 0. 9.
 15 1 1 2 0 0 1.66121 4.17613 1.267 4.99627 1.7768 0. -1
 -15 1 1 2 0 0 -1.66121 -4.17613 -1.25703 4.99375 1.7768 0. 1
</event>
<event>
 4 80 1 -1 -1 -1
 11 -1 0 0 0 0 0 0 4.99961 4.99961 0 0. 9.
 -11 -1 0 0 0 0 0 0 -4.99999 4.99999 0 0. 9.
 15 1 1 2 0 0 -1.79675 2.79823 3.28339 4.99968 1.7768 0. -1
 -15 1 1 2 0 0 1.79675 -2.79823 -3.28377 4.99993 1.7768 0. 1
</event>
<event>
 4 80 1 -1 -1 -1
 11 -1 0 0 0 0 0 0 5 5 0 0. 9.
 -11 -1 0 0 0 0 0 0 -4.99999 4.99999 0 0. 9.
 15 1 1 2 0 0 -4.54159 0.897166 -0.641312 4.99999 1.7768 0. 1
 -15 1 1 2 0 0 4.54159 -0.897166 0.641321 5 1.7768 0. -1
</event>
<event>
 4 80 1 -1 -1 -1
 11 -1 0 0 0 0 0 0 5 5 0 0. 9.
 -11 -1 0 0 0 0 0 0 -5 5 0 0. 9.
 15 1 1 2 0 0 0.286459 -3.17389 3.41857 5 1.7768 0. -1
 -15 1 1 2 0 0 -0.286459 3.17389 -3.41857 5 1.7768 0. 1
</event>
<event>
 4 80 1 -1 -1 -1
 11 -1 0 0 0 0 0 0 4.98894 4.98894 0 0. 9.
 -11 -1 0 0 0 0 0 0 -5 5 0 0. 9.
 15 1 1 2 0 0 1.85142 -2.13756 3.70798 4.99036 1.7768 0. -1
 -15 1 1 2 0 0 -1.85142 2.13756 -3.71903 4.99858 1.7768 0. 1
</event>
<event>
 4 80 1 -1 -1 -1
 11 -1 0 0 0 0 0 0 4.99998 4.99998 0 0. 9.
 -11 -1 0 0 0 0 0 0 -4.99999 4.99999 0 0. 9.
 15 1 1 2 0 0 -1.86958 1.01706 -4.16081 4.99999 1.7768 0. -1
 -15 1 1 2 0 0 1.86958 -1.01706 4.16081 4.99998 1.7768 0. 1
</event>
<event>
 4 80 1 -1 -1 -1
 11 -1 0 0 0 0 0 0 4.87081 4.87081 0 0. 9.
 -11 -1 0 0 0 0 0 0 -5 5 0 0. 9.
 15 1 1 2 0 0 1.48348 -4.3001 -0.775082 4.9447 1.7768 0. -1
 -15 1 1 2 0 0 -1.48348 4.3001 0.645888 4.9261 1.7768 0. 1
</event>
<event>
 4 80 1 -1 -1 -1
 11 -1 0 0 0 0 0 0 5 5 0 0. 9.
 -11 -1 0 0 0 0 0 0 -4.99995 4.99995 0 0. 9.
 15 1 1 2 0 0 0.348163 -4.63904 -0.44725 4.99997 1.7768 0. 1
 -15 1 1 2 0 0 -0.348163 4.63904 0.447302 4.99998 1.7768 0. -1
</event>
<event>
 4 80 1 -1 -1 -1
 11 -1 0 0 0 0 0 0 5 5 0 0. 9.
 -11 -1 0 0 0 0 0 0 -4.99999 4.99999 0 0. 9.
 15 1 1 2 0 0 4.3228 -1.69454 0.533036 5 1.7768 0. 1
 -15 1 1 2 0 0 -4.3228 1.69454 -0.533031 5 1.7768 0. -1
</event>
<event>
 4 80 1 -1 -1 -1
 11 -1 0 0 0 0 0 0 4.99883 4.99883 0 0. 9.
 -11 -1 0 0 0 0 0 0 -5 5 0 0. 9.
 15 1 1 2 0 0 -2.78232 3.71688 0.528497 4.99936 1.7768 0. 1
 -15 1 1 2 0 0 2.78232 -3.71688 -0.529662 4.99948 1.7768 0. -1
</event>
<event>
 4 80 1 -1 -1 -1
 11 -1 0 0 0 0 0 0 5 5 0 0. 9.
 -11 -1 0 0 0 0 0 0 -4.88694 4.88694 0 0. 9.
 15 1 1 2 0 0 -4.57452 0.413684 0.480289 4.94831 1.7768 0. 1
 -15 1 1 2 0 0 4.57452 -0.413684 -0.367226 4.93862 1.7768 0. -1
</event>
<event>
 4 80 1 -1 -1 -1
 11 -1 0 0 0 0 0 0 4.99999 4.99999 0 0. 9.
 -11 -1 0 0 0 0 0 0 -4.91079 4.91079 0 0. 9.
 15 1 1 2 0 0 -1.93784 1.82374 -3.73906 4.92133 1.7768 0. 1
 -15 1 1 2 0 0 1.93784 -1.82374 3.82825 4.98944 1.7768 0. -1
</event>
<event>
 4 80 1 -1 -1 -1
 11 -1 0 0 0 0 0 0 4.99999 4.99999 0 0. 9.
 -11 -1 0 0 0 0 0 0 -4.99217 4.99217 0 0. 9.
 15 1 1 2 0 0 0.559756 1.36862 -4.42516 4.99261 1.7768 0. -1
 -15 1 1 2 0 0 -0.559756 -1.36862 4.43297 4.99954 1.7768 0. 1
</event>
<event>
 4 80 1 -1 -1 -1
 11 -1 0 0 0 0 0 0 3.46456 3.46456 0 0. 9.
 -11 -1 0 0 0 0 0 0 -5 5 0 0. 9.
 15 1 1 2 0 0 0.0773987 3.44453 -2.30797 4.51168 1.7768 0. -1
 -15 1 1 2 0 0 -0.0773987 -3.44453 0.772535 3.95289 1.7768 0. 1
</event>
<event>
 4 80 1 -1 -1 -1
 11 -1 0 0 0 0 0 0 4.25051 4.25051 0 0. 9.
 -11 -1 0 0 0 0 0 0 -5 5 0 0. 9.
 15 1 1 2 0 0 -1.22814 3.40701 1.86394 4.44387 1.7768 0. 1
 -15 1 1 2 0 0 1.22814 -3.40701 -2.61343 4.80664 1.7768 0. -1
</event>
<event>
 4 80 1 -1 -1 -1
 11 -1 0 0 0 0 0 0 4.86665 4.86665 0 0. 9.
 -11 -1 0 0 0 0 0 0 -5 5 0 0. 9.
 15 1 1 2 0 0 2.32773 2.90422 2.63963 4.89675 1.7768 0. 1
 -15 1 1 2 0 0 -2.32773 -2.90422 -2.77298 4.9699 1.7768 0. -1
</event>
<event>
 4 80 1 -1 -1 -1
 11 -1 0 0 0 0 0 0 5 5 0 0. 9.
 -11 -1 0 0 0 0 0 0 -5 5 0 0. 9.
 15 1 1 2 0 0 3.22297 2.23329 2.54306 5 1.7768 0. -1
 -15 1 1 2 0 0 -3.22297 -2.23329 -2.54306 5 1.7768 0. 1
</event>
<event>
 4 80 1 -1 -1 -1
 11 -1 0 0 0 0 0 0 5 5 0 0. 9.
 -11 -1 0 0 0 0 0 0 -5 5 0 0. 9.
 15 1 1 2 0 0 -2.74988 -3.21863 -1.98011 5 1.7768 0. -1
 -15 1 1 2 0 0 2.74988 3.21863 1.98011 5 1.7768 0. 1
</event>
<event>
 4 80 1 -1 -1 -1
 11 -1 0 0 0 0 0 0 0.780724 0.780724 0 0. 9.
 -11 -1 0 0 0 0 0 0 -5 5 0 0. 9.
 15 1 1 2 0 0 -0.435949 0.579591 -2.79567 3.39109 1.7768 0. 1
 -15 1 1 2 0 0 0.435949 -0.579591 -1.42361 2.38964 1.7768 0. -1
</event>
<event>
 4 80 1 -1 -1 -1
 11 -1 0 0 0 0 0 0 4.99994 4.99994 0 0. 9.
 -11 -1 0 0 0 0 0 0 -5 5 0 0. 9.
 15 1 1 2 0 0 1.76735 -3.05598 3.06255 4.99995 1.7768 0. -1
 -15 1 1 2 0 0 -1.76735 3.05598 -3.06262 4.99999 1.7768 0. 1
</event>
<event>
 4 80 1 -1 -1 -1
 11 -1 0 0 0 0 0 0 5 5 0 0. 9.
 -11 -1 0 0 0 0 0 0 -4.99957 4.99957 0 0. 9.
 15 1 1 2 0 0 -2.52722 -3.27535 2.17401 4.99988 1.7768 0. -1
 -15 1 1 2 0 0 2.52722 3.27535 -2.17359 4.99969 1.7768 0. 1
</event>
<event>
 4 80 1 -1 -1 -1
 11 -1 0 0 0 0 0 0 4.99875 4.99875 0 0. 9.
 -11 -1 0 0 0 0 0 0 -5 5 0 0. 9.
 15 1 1 2 0 0 -3.01874 -1.2429 -3.34404 4.99979 1.7768 0. 1
 -15 1 1 2 0 0 3.01874 1.2429 3.34278 4.99895 1.7768 0. -1
</event>
<event>
 4 80 1 -1 -1 -1
 11 -1 0 0 0 0 0 0 1.00712 1.00712 0 0. 9.
 -11 -1 0 0 0 0 0 0 -4.9998 4.9998 0 0. 9.
 15 1 1 2 0 0 0.34853 1.03265 -0.884681 2.26456 1.7768 0. 1
 -15 1 1 2 0 0 -0.34853 -1.03265 -3.108 3.74236 1.7768 0. -1
</event>
<event>
 4 80 1 -1 -1 -1
 11 -1 0 0 0 0 0 0 4.99993 4.99993 0 0. 9.
 -11 -1 0 0 0 0 0 0 -5 5 0 0. 9.
 15 1 1 2 0 0 3.23881 1.75658 2.87511 4.99995 1.7768 0. -1
 -15 1 1 2 0 0 -3.23881 -1.75658 -2.87518 4.99999 1.7768 0. 1
</event>
<event>
 4 80 1 -1 -1 -1
 11 -1 0 0 0 0 0 0 5 5 0 0. 9.
 -11 -1 0 0 0 0 0 0 -4.99829 4.99829 0 0. 9.
 15 1 1 2 0 0 -0.904247 0.485273 -4.55772 4.99837 1.7768 0. 1
 -15 1 1 2 0 0 0.904247 -0.485273 4.55943 4.99992 1.7768 0. -1
</event>
<event>
 4 80 1 -1 -1 -1
 11 -1 0 0 0 0 0 0 4.9983 4.9983 0 0. 9.
 -11 -1 0 0 0 0 0 0 -4.12798 4.12798 0 0. 9.
 15 1 1 2 0 0 0.149343 3.94798 -0.937232 4.43226 1.7768 0. 1
 -15 1 1 2 0 0 -0.149343 -3.94798 1.80755 4.69402 1.7768 0. -1
</event>
<event>
 4 80 1 -1 -1 -1
 11 -1 0 0 0 0 0 0 4.99914 4.99914 0 0. 9.
 -11 -1 0 0 0 0 0 0 -5 5 0 0. 9.
 15 1 1 2 0 0 -0.38813 4.61796 0.601043 4.99952 1.7768 0. -1
 -15 1 1 2 0 0 0.38813 -4.61796 -0.601901 4.99962 1.7768 0. 1
</event>
<event>
 4 80 1 -1 -1 -1
 11 -1 0 0 0 0 0 0 4.859 4.859 0 0. 9.
 -11 -1 0 0 0 0 0 0 -5 5 0 0. 9.
 15 1 1 2 0 0 -0.0135282 0.262907 -4.66096 4.99515 1.7768 0. 1
 -15 1 1 2 0 0 0.0135282 -0.262907 4.51996 4.86385 1.7768 0. -1
</event>
<event>
 4 80 1 -1 -1 -1
 11 -1 0 0 0 0 0 0 4.99971 4.99971 0 0. 9.
 -11 -1 0 0 0 0 0 0 -5 5 0 0. 9.
 15 1 1 2 0 0 -0.281866 2.7769 -3.7485 4.99996 1.7768 0. -1
 -15 1 1 2 0 0 0.281866 -2.7769 3.74821 4.99974 1.7768 0. 1
</event>
<event>
 4 80 1 -1 -1 -1
 11 -1 0 0 0 0 0 0 5 5 0 0. 9.
 -11 -1 0 0 0 0 0 0 -4.9791 4.9791 0 0. 9.
 15 1 1 2 0 0 -0.585351 0.613314 4.59511 4.99915 1.7768 0. 1
 -15 1 1 2 0 0 0.585351 -0.613314 -4.57421 4.97995 1.7768 0. -1
</event>
<event>
 4 80 1 -1 -1 -1
 11 -1 0 0 0 0 0 0 4.99989 4.99989 0 0. 9.
 -11 -1 0 0 0 0 0 0 -5 5 0 0. 9.
 15 1 1 2 0 0 -1.20161 -2.66628 -3.64543 4.99998 1.7768 0. -1
 -15 1 1 2 0 0 1.20161 2.66628 3.64532 4.9999 1.7768 0. 1
</event>
<event>
 4 80 1 -1 -1 -1
 11 -1 0 0 0 0 0 0 4.99938 4.99938 0 0. 9.
 -11 -1 0 0 0 0 0 0 -5 5 0 0. 9.
 15 1 1 2 0 0 3.76929 -2.56957 -1.01469 4.99975 1.7768 0. 1
 -15 1 1 2 0 0 -3.76929 2.56957 1.01407 4.99963 1.7768 0. -1
</event>
<event>
 4 80 1 -1 -1 -1
 11 -1 0 0 0 0 0 0 5 5 0 0. 9.
 -11 -1 0 0 0 0 0 0 -4.35583 4.35583 0 0. 9.
 15 1 1 2 0 0 3.57229 -0.85862 -1.94668 4.5217 1.7768 0. -1
 -15 1 1 2 0 0 -3.57229 0.85862 2.59085 4.83412 1.7768 0. 1
</event>
<event>
 4 80 1 -1 -1 -1
 11 -1 0 0 0 0 0 0 4.89718 4.89718 0 0. 9.
 -11 -1 0 0 0 0 0 0 -5 5 0 0. 9.
 15 1 1 2 0 0 -2.88741 -2.94003 -2.13653 4.97025 1.7768 0. -1
 -15 1 1 2 0 0 2.88741 2.94003 2.03371 4.92693 1.7768 0. 1
</event>
<event>
 4 80 1 -1 -1 -1
 11 -1 0 0 0 0 0 0 4.99979 4.99979 0 0. 9.
 -11 -1 0 0 0 0 0 0 -4.89797 4.89797 0 0. 9.
 15 1 1 2 0 0 -0.763532 1.32142 4.41027 4.99373 1.7768 0. 1
 -15 1 1 2 0 0 0.763532 -1.32142 -4.30845 4.90404 1.7768 0. -1
</event>
<event>
 4 80 1 -1 -1 -1
 11 -1 0 0 0 0 0 0 5 5 0 0. 9.
 -11 -1 0 0 0 0 0 0 -5 5 0 0. 9.
 15 1 1 2 0 0 0.561065 -4.04056 -2.28065 5 1.7768 0. -1
 -15 1 1 2 0 0 -0.561065 4.04056 2.28065 5 1.7768 0. 1
</event>
<event>
 4 80 1 -1 -1 -1
 11 -1 0 0 0 0 0 0 4.9492 4.9492 0 0. 9.
 -11 -1 0 0 0 0 0 0 -4.94737 4.94737 0 0. 9.
 15 1 1 2 0 0 -2.10421 3.01432 -2.79444 4.94777 1.7768 0. -1
 -15 1 1 2 0 0 2.10421 -3.01432 2.79627 4.94881 1.7768 0. 1
</event>
<event>
 4 80 1 -1 -1 -1
 11 -1 0 0 0 0 0 0 5 5 0 0. 9.
 -11 -1 0 0 0 0 0 0 -5 5 0 0. 9.
 15 1 1 2 0 0 -1.40514 4.07969 -1.79555 5 1.7768 0. -1
 -15 1 1 2 0 0 1.40514 -4.07969 1.79555 5 1.7768 0. 1
</event>
<event>
 4 80 1 -1 -1 -1
 11 -1 0 0 0 0 0 0 5 5 0 0. 9.
 -11 -1 0 0 0 0 0 0 -4.99784 4.99784 0 0. 9.
 15 1 1 2 0 0 3.63993 2.87199 -0.576905 4.9988 1.7768 0. 1
 -15 1 1 2 0 0 -3.63993 -2.87199 0.57906 4.99905 1.7768 0. -1
</event>
<event>
 4 80 1 -1 -1 -1
 11 -1 0 0 0 0 0 0 4.99984 4.99984 0 0. 9.
 -11 -1 0 0 0 0 0 0 -3.90253 3.90253 0 0. 9.
 15 1 1 2 0 0 1.26233 -3.83127 0.259765 4.41558 1.7768 0. 1
 -15 1 1 2 0 0 -1.26233 3.83127 0.837542 4.48679 1.7768 0. -1
</event>
<event>
 4 80 1 -1 -1 -1
 11 -1 0 0 0 0 0 0 4.72662 4.72662 0 0. 9.
 -11 -1 0 0 0 0 0 0 -5 5 0 0. 9.
 15 1 1 2 0 0 2.11867 -0.843486 3.7732 4.75342 1.7768 0. 1
 -15 1 1 2 0 0 -2.11867 0.843486 -4.04658 4.9732 1.7768 0. -1
</event>
<event>
 4 80 1 -1 -1 -1
 11 -1 0 0 0 0 0 0 4.99481 4.99481 0 0. 9.
 -11 -1 0 0 0 0 0 0 -4.99945 4.99945 0 0. 9.
 15 1 1 2 0 0 -1.8983 -3.1282 2.90016 4.99578 1.7768 0. -1
 -15 1 1 2 0 0 1.8983 3.1282 -2.9048 4.99847 1.7768 0. 1
</event>
<event>
 4 80 1 -1 -1 -1
 11 -1 0 0 0 0 0 0 5 5 0 0. 9.
 -11 -1 0 0 0 0 0 0 -4.99985 4.99985 0 0. 9.
 15 1 1 2 0 0 -2.59785 2.72059 2.77335 4.99997 1.7768 0. -1
 -15 1 1 2 0 0 2.59785 -2.72059 -2.77321 4.99989 1.7768 0. 1
</event>
<event>
 4 80 1 -1 -1 -1
 11 -1 0 0 0 0 0 0 5 5 0 0. 9.
 -11 -1 0 0 0 0 0 0 -5 5 0 0. 9.
 15 1 1 2 0 0 -0.659763 -1.0983 -4.49452 5 1.7768 0. 1
 -15 1 1 2 0 0 0.659763 1.0983 4.49452 5 1.7768 0. -1
</event>
<event>
 4 80 1 -1 -1 -1
 11 -1 0 0 0 0 0 0 4.44763 4.44763 0 0. 9.
 -11 -1 0 0 0 0 0 0 -5 5 0 0. 9.
 15 1 1 2 0 0 -0.594241 -4.02344 -1.87242 4.81714 1.7768 0. 1
 -15 1 1 2 0 0 0.594241 4.02344 1.32005 4.63049 1.7768 0. -1
</event>
<event>
 4 80 1 -1 -1 -1
 11 -1 0 0 0 0 0 0 5 5 0 0. 9.
 -11 -1 0 0 0 0 0 0 -4.99335 4.99335 0 0. 9.
 15 1 1 2 0 0 3.90039 2.25852 1.22605 4.99749 1.7768 0. 1
 -15 1 1 2 0 0 -3.90039 -2.25852 -1.2194 4.99586 1.7768 0. -1
</event>
<event>
 4 80 1 -1 -1 -1
 11 -1 0 0 0 0 0 0 4.99998 4.99998 0 0. 9.
 -11 -1 0 0 0 0 0 0 -5 5 0 0. 9.
 15 1 1 2 0 0 3.58479 -0.511111 2.95468 4.99998 1.7768 0. -1
 -15 1 1 2 0 0 -3.58479 0.511111 -2.9547 5 1.7768 0. 1
</event>
<event>
 4 80 1 -1 -1 -1
 11 -1 0 0 0 0 0 0 5 5 0 0. 9.
 -11 -1 0 0 0 0 0 0 -5 5 0 0. 9.
 15 1 1 2 0 0 2.96556 -1.83748 3.10989 5 1.7768 0. -1
 -15 1 1 2 0 0 -2.96556 1.83748 -3.10989 5 1.7768 0. 1
</event>
<event>
 4 80 1 -1 -1 -1
 11 -1 0 0 0 0 0 0 5 5 0 0. 9.
 -11 -1 0 0 0 0 0 0 -5 5 0 0. 9.
 15 1 1 2 0 0 -0.377097 -4.62617 -0.546463 5 1.7768 0. 1
 -15 1 1 2 0 0 0.377097 4.62617 0.546463 5 1.7768 0. -1
</event>
<event>
 4 80 1 -1 -1 -1
 11 -1 0 0 0 0 0 0 5 5 0 0. 9.
 -11 -1 0 0 0 0 0 0 -5 5 0 0. 9.
 15 1 1 2 0 0 -0.40809 -4.62163 0.562417 5 1.7768 0. 1
 -15 1 1 2 0 0 0.40809 4.62163 -0.562418 5 1.7768 0. -1
</event>
<event>
 4 80 1 -1 -1 -1
 11 -1 0 0 0 0 0 0 5 5 0 0. 9.
 -11 -1 0 0 0 0 0 0 -5 5 0 0. 9.
 15 1 1 2 0 0 3.32303 -2.92846 1.49126 5 1.7768 0. -1
 -15 1 1 2 0 0 -3.32303 2.92846 -1.49126 5 1.7768 0. 1
</event>
<event>
 4 80 1 -1 -1 -1
 11 -1 0 0 0 0 0 0 5 5 0 0. 9.
 -11 -1 0 0 0 0 0 0 -5 5 0 0. 9.
 15 1 1 2 0 0 -1.32931 2.36221 -3.80725 5 1.7768 0. 1
 -15 1 1 2 0 0 1.32931 -2.36221 3.80725 5 1.7768 0. -1
</event>
<event>
 4 80 1 -1 -1 -1
 11 -1 0 0 0 0 0 0 1.52082 1.52082 0 0. 9.
 -11 -1 0 0 0 0 0 0 -5 5 0 0. 9.
 15 1 1 2 0 0 0.219734 0.836734 -4.01327 4.47353 1.7768 0. 1
 -15 1 1 2 0 0 -0.219734 -0.836734 0.53409 2.04729 1.7768 0. -1
</event>
<event>
 4 80 1 -1 -1 -1
 11 -1 0 0 0 0 0 0 4.99999 4.99999 0 0. 9.
 -11 -1 0 0 0 0 0 0 -5 5 0 0. 9.
 15 1 1 2 0 0 -0.269706 -4.462 1.36382 5 1.7768 0. 1
 -15 1 1 2 0 0 0.269706 4.462 -1.36383 5 1.7768 0. -1
</event>
<event>
 4 80 1 -1 -1 -1
 11 -1 0 0 0 0 0 0 3.79573 3.79573 0 0. 9.
 -11 -1 0 0 0 0 0 0 -5 5 0 0. 9.
 15 1 1 2 0 0 -2.41746 -2.08641 -2.99611 4.72564 1.7768 0. 1
 -15 1 1 2 0 0 2.41746 2.08641 1.79185 4.0701 1.7768 0. -1
</event>
<event>
 4 80 1 -1 -1 -1
 11 -1 0 0 0 0 0 0 4.99949 4.99949 0 0. 9.
 -11 -1 0 0 0 0 0 0 -4.46359 4.46359 0 0. 9.
 15 1 1 2 0 0 0.862301 0.533152 -3.99685 4.49002 1.7768 0. 1
 -15 1 1 2 0 0 -0.862301 -0.533152 4.53274 4.97306 1.7768 0. -1
</event>
<event>
 4 80 1 -1 -1 -1
 11 -1 0 0 0 0 0 0 5 5 0 0. 9.
 -11 -1 0 0 0 0 0 0 -5 5 0 0. 9.
 15 1 1 2 0 0 3.65132 2.23078 -1.87984 5 1.7768 0. -1
 -15 1 1 2 0 0 -3.65132 -2.23078 1.87984 5 1.7768 0. 1
</event>
<event>
 4 80 1 -1 -1 -1
 11 -1 0 0 0 0 0 0 4.99996 4.99996 0 0. 9.
 -11 -1 0 0 0 0 0 0 -2.99436 2.99436 0 0. 9.
 15 1 1 2 0 0 1.75874 2.33614 -0.863327 3.52899 1.7768 0. -1
 -15 1 1 2 0 0 -1.75874 -2.33614 2.86892 4.46533 1.7768 0. 1
</event>
<event>
 4 80 1 -1 -1 -1
 11 -1 0 0 0 0 0 0 5 5 0 0. 9.
 -11 -1 0 0 0 0 0 0 -4.99999 4.99999 0 0. 9.
 15 1 1 2 0 0 -0.563001 -0.115033 4.63811 5 1.7768 0. -1
 -15 1 1 2 0 0 0.563001 0.115033 -4.6381 4.99999 1.7768 0. 1
</event>
<event>
 4 80 1 -1 -1 -1
 11 -1 0 0 0 0 0 0 5 5 0 0. 9.
 -11 -1 0 0 0 0 0 0 -5 5 0 0. 9.
 15 1 1 2 0 0 -0.545667 -4.59719 0.640623 5 1.7768 0. -1
 -15 1 1 2 0 0 0.545667 4.59719 -0.640623 5 1.7768 0. 1
</event>
<event>
 4 80 1 -1 -1 -1
 11 -1 0 0 0 0 0 0 4.59823 4.59823 0 0. 9.
 -11 -1 0 0 0 0 0 0 -5 5 0 0. 9.
 15 1 1 2 0 0 -4.27005 -0.242421 -1.44349 4.85113 1.7768 0. 1
 -15 1 1 2 0 0 4.27005 0.242421 1.04172 4.7471 1.7768 0. -1
</event>
<event>
 4 80 1 -1 -1 -1
 11 -1 0 0 0 0 0 0 5 5 0 0. 9.
 -11 -1 0 0 0 0 0 0 -4.99955 4.99955 0 0. 9.
 15 1 1 2 0 0 -0.646135 4.27231 -1.78021 4.9997 1.7768 0. -1
 -15 1 1 2 0 0 0.646135 -4.27231 1.78066 4.99986 1.7768 0. 1
</event>
<event>
 4 80 1 -1 -1 -1
 11 -1 0 0 0 0 0 0 5 5 0 0. 9.
 -11 -1 0 0 0 0 0 0 -4.99993 4.99993 0 0. 9.
 15 1 1 2 0 0 -0.426322 4.00944 2.3632 4.99998 1.7768 0. -1
 -15 1 1 2 0 0 0.426322 -4.00944 -2.36313 4.99995 1.7768 0. 1
</event>
<event>
 4 80 1 -1 -1 -1
 11 -1 0 0 0 0 0 0 5 5 0 0. 9.
 -11 -1 0 0 0 0 0 0 -4.99087 4.99087 0 0. 9.
 15 1 1 2 0 0 3.42395 2.15485 -2.32563 4.99331 1.7768 0. 1
 -15 1 1 2 0 0 -3.42395 -2.15485 2.33476 4.99756 1.7768 0. -1
</event>
<event>
 4 80 1 -1 -1 -1
 11 -1 0 0 0 0 0 0 4.96774 4.96774 0 0. 9.
 -11 -1 0 0 0 0 0 0 -5 5 0 0. 9.
 15 1 1 2 0 0 -2.42186 2.83748 2.77032 4.97485 1.7768 0. 1
 -15 1 1 2 0 0 2.42186 -2.83748 -2.80259 4.99289 1.7768 0. -1
</event>
<event>
 4 80 1 -1 -1 -1
 11 -1 0 0 0 0 0 0 4.99987 4.99987 0 0. 9.
 -11 -1 0 0 0 0 0 0 -4.99998 4.99998 0 0. 9.
 15 1 1 2 0 0 -1.41337 -2.31447 -3.80625 4.99997 1.7768 0. 1
 -15 1 1 2 0 0 1.41337 2.31447 3.80614 4.99988 1.7768 0. -1
</event>
<event>
 4 80 1 -1 -1 -1
 11 -1 0 0 0 0 0 0 4.99986 4.99986 0 0. 9.
 -11 -1 0 0 0 0 0 0 -5 5 0 0. 9.
 15 1 1 2 0 0 0.220658 4.29692 -1.82473 4.99996 1.7768 0. 1
 -15 1 1 2 0 0 -0.220658 -4.29692 1.82459 4.99991 1.7768 0. -1
</event>
<event>
 4 80 1 -1 -1 -1
 11 -1 0 0 0 0 0 0 5 5 0 0. 9.
 -11 -1 0 0 0 0 0 0 -4.99989 4.99989 0 0. 9.
 15 1 1 2 0 0 0.519346 0.585498 4.60757 5 1.7768 0. -1
 -15 1 1 2 0 0 -0.519346 -0.585498 -4.60746 4.9999 1.7768 0. 1
</event>
<event>
 4 80 1 -1 -1 -1
 11 -1 0 0 0 0 0 0 1.85287 1.85287 0 0. 9.
 -11 -1 0 0 0 0 0 0 -2.58196 2.58196 0 0. 9.
 15 1 1 2 0 0 0.0886933 -0.276148 -1.62352 2.42439 1.7768 0. 1
 -15 1 1 2 0 0 -0.0886933 0.276148 0.894438 2.01044 1.7768 0. -1
</event>
<event>
 4 80 1 -1 -1 -1
 11 -1 0 0 0 0 0 0 2.14057 2.14057 0 0. 9.
 -11 -1 0 0 0 0 0 0 -4.99996 4.99996 0 0. 9.
 15 1 1 2 0 0 1.03829 2.49718 -1.95429 3.78033 1.7768 0. 1
 -15 1 1 2 0 0 -1.03829 -2.49718 -0.905102 3.36019 1.7768 0. -1
</event>
<event>
 4 80 1 -1 -1 -1
 11 -1 0 0 0 0 0 0 4.95673 4.95673 0 0. 9.
 -11 -1 0 0 0 0 0 0 -4.99999 4.99999 0 0. 9.
 15 1 1 2 0 0 -1.74675 2.26085 -3.69091 4.99431 1.7768 0. -1
 -15 1 1 2 0 0 1.74675 -2.26085 3.64764 4.96242 1.7768 0. 1
</event>
<event>
 4 80 1 -1 -1 -1
 11 -1 0 0 0 0 0 0 5 5 0 0. 9.
 -11 -1 0 0 0 0 0 0 -5 5 0 0. 9.
 15 1 1 2 0 0 0.152324 -4.64117 0.527834 5 1.7768 0. 1
 -15 1 1 2 0 0 -0.152324 4.64117 -0.527834 5 1.7768 0. -1
</event>
<event>
 4 80 1 -1 -1 -1
 11 -1 0 0 0 0 0 0 5 5 0 0. 9.
 -11 -1 0 0 0 0 0 0 -5 5 0 0. 9.
 15 1 1 2 0 0 3.9775 -2.45375 -0.0292115 5 1.7768 0. 1
 -15 1 1 2 0 0 -3.9775 2.45375 0.0292115 5 1.7768 0. -1
</event>
<event>
 4 80 1 -1 -1 -1
 11 -1 0 0 0 0 0 0 5 5 0 0. 9.
 -11 -1 0 0 0 0 0 0 -5 5 0 0. 9.
 15 1 1 2 0 0 2.44608 -1.8647 3.51878 5 1.7768 0. 1
 -15 1 1 2 0 0 -2.44608 1.8647 -3.51878 5 1.7768 0. -1
</event>
<event>
 4 80 1 -1 -1 -1
 11 -1 0 0 0 0 0 0 4.94096 4.94096 0 0. 9.
 -11 -1 0 0 0 0 0 0 -4.9917 4.9917 0 0. 9.
 15 1 1 2 0 0 0.91429 -3.38285 -3.06292 4.98185 1.7768 0. -1
 -15 1 1 2 0 0 -0.91429 3.38285 3.01217 4.95081 1.7768 0. 1
</event>
<event>
 4 80 1 -1 -1 -1
 11 -1 0 0 0 0 0 0 5 5 0 0. 9.
 -11 -1 0 0 0 0 0 0 -5 5 0 0. 9.
 15 1 1 2 0 0 0.912194 -0.915693 4.49129 5 1.7768 0. 1
 -15 1 1 2 0 0 -0.912194 0.915693 -4.49129 5 1.7768 0. -1
</event>
<event>
 4 80 1 -1 -1 -1
 11 -1 0 0 0 0 0 0 3.23103 3.23103 0 0. 9.
 -11 -1 0 0 0 0 0 0 -5 5 0 0. 9.
 15 1 1 2 0 0 -1.96318 2.24551 1.18906 3.66988 1.7768 0. -1
 -15 1 1 2 0 0 1.96318 -2.24551 -2.95803 4.56115 1.7768 0. 1
</event>
<event>
 4 80 1 -1 -1 -1
 11 -1 0 0 0 0 0 0 3.27041 3.27041 0 0. 9.
 -11 -1 0 0 0 0 0 0 -5 5 0 0. 9.
 15 1 1 2 0 0 -1.79585 -2.70827 -2.52462 4.48232 1.7768 0. -1
 -15 1 1 2 0 0 1.79585 2.70827 0.795031 3.78809 1.7768 0. 1
</event>
<event>
 4 80 1 -1 -1 -1
 11 -1 0 0 0 0 0 0 5 5 0 0. 9.
 -11 -1 0 0 0 0 0 0 -5 5 0 0. 9.
 15 1 1 2 0 0 -2.61364 -3.44938 -1.76434 5 1.7768 0. 1
 -15 1 1 2 0 0 2.61364 3.44938 1.76434 5 1.7768 0. -1
</event>
<event>
 4 80 1 -1 -1 -1
 11 -1 0 0 0 0 0 0 4.99991 4.99991 0 0. 9.
 -11 -1 0 0 0 0 0 0 -5 5 0 0. 9.
 15 1 1 2 0 0 0.180347 3.9197 -2.53879 4.99998 1.7768 0. -1
 -15 1 1 2 0 0 -0.180347 -3.9197 2.5387 4.99993 1.7768 0. 1
</event>
<event>
 4 80 1 -1 -1 -1
 11 -1 0 0 0 0 0 0 4.96198 4.96198 0 0. 9.
 -11 -1 0 0 0 0 0 0 -5 5 0 0. 9.
 15 1 1 2 0 0 -0.103961 -3.94151 2.452 4.97156 1.7768 0. -1
 -15 1 1 2 0 0 0.103961 3.94151 -2.49003 4.99042 1.7768 0. 1
</event>
<event>
 4 80 1 -1 -1 -1
 11 -1 0 0 0 0 0 0 4.99984 4.99984 0 0. 9.
 -11 -1 0 0 0 0 0 0 -4.99993 4.99993 0 0. 9.
 15 1 1 2 0 0 -1.20278 1.72876 -4.17207 4.99992 1.7768 0. -1
 -15 1 1 2 0 0 1.20278 -1.72876 4.17198 4.99985 1.7768 0. 1
</event>
<event>
 4 80 1 -1 -1 -1
 11 -1 0 0 0 0 0 0 4.99987 4.99987 0 0. 9.
 -11 -1 0 0 0 0 0 0 -5 5 0 0. 9.
 15 1 1 2 0 0 -2.43492 3.9515 0.546193 4.99993 1.7768 0. 1
 -15 1 1 2 0 0 2.43492 -3.9515 -0.546324 4.99994 1.7768 0. -1
</event>
<event>
 4 80 1 -1 -1 -1
 11 -1 0 0 0 0 0 0 4.97826 4.97826 0 0. 9.
 -11 -1 0 0 0 0 0 0 -4.74965 4.74965 0 0. 9.
 15 1 1 2 0 0 -0.181533 -1.48838 4.3862 4.96435 1.7768 0. 1
 -15 1 1 2 0 0 0.181533 1.48838 -4.15759 4.76356 1.7768 0. -1
</event>
<event>
 4 80 1 -1 -1 -1
 11 -1 0 0 0 0 0 0 5 5 0 0. 9.
 -11 -1 0 0 0 0 0 0 -5 5 0 0. 9.
 15 1 1 2 0 0 0.615135 4.39439 1.4674 5 1.7768 0. 1
 -15 1 1 2 0 0 -0.615135 -4.39439 -1.4674 5 1.7768 0. -1
</event>
<event>
 4 80 1 -1 -1 -1
 11 -1 0 0 0 0 0 0 4.99999 4.99999 0 0. 9.
 -11 -1 0 0 0 0 0 0 -5 5 0 0. 9.
 15 1 1 2 0 0 -3.71754 -1.87142 2.12601 5 1.7768 0. -1
 -15 1 1 2 0 0 3.71754 1.87142 -2.12602 5 1.7768 0. 1
</event>
<event>
 4 80 1 -1 -1 -1
 11 -1 0 0 0 0 0 0 4.99999 4.99999 0 0. 9.
 -11 -1 0 0 0 0 0 0 -5 5 0 0. 9.
 15 1 1 2 0 0 2.62355 -3.80149 0.712671 4.99999 1.7768 0. -1
 -15 1 1 2 0 0 -2.62355 3.80149 -0.712682 5 1.7768 0. 1
</event>
<event>
 4 80 1 -1 -1 -1
 11 -1 0 0 0 0 0 0 2.98492 2.98492 0 0. 9.
 -11 -1 0 0 0 0 0 0 -5 5 0 0. 9.
 15 1 1 2 0 0 1.77901 2.08299 -3.14135 4.53095 1.7768 0. 1
 -15 1 1 2 0 0 -1.77901 -2.08299 1.12626 3.45397 1.7768 0. -1
</event>
<event>
 4 80 1 -1 -1 -1
 11 -1 0 0 0 0 0 0 4.99993 4.99993 0 0. 9.
 -11 -1 0 0 0 0 0 0 -4.99183 4.99183 0 0. 9.
 15 1 1 2 0 0 -0.980285 -1.47042 4.32585 4.99938 1.7768 0. 1
 -15 1 1 2 0 0 0.980285 1.47042 -4.31775 4.99238 1.7768 0. -1
</event>
<event>
 4 80 1 -1 -1 -1
 11 -1 0 0 0 0 0 0 5 5 0 0. 9.
 -11 -1 0 0 0 0 0 0 -4.99479 4.99479 0 0. 9.
 15 1 1 2 0 0 2.34535 1.18072 3.86543 4.99941 1.7768 0. -1
 -15 1 1 2 0 0 -2.34535 -1.18072 -3.86023 4.99538 1.7768 0. 1
</event>
<event>
 4 80 1 -1 -1 -1
 11 -1 0 0 0 0 0 0 5 5 0 0. 9.
 -11 -1 0 0 0 0 0 0 -5 5 0 0. 9.
 15 1 1 2 0 0 -1.35293 0.365804 4.45848 5 1.7768 0. 1
 -15 1 1 2 0 0 1.35293 -0.365804 -4.45848 5 1.7768 0. -1
</event>
<event>
 4 80 1 -1 -1 -1
 11 -1 0 0 0 0 0 0 5 5 0 0. 9.
 -11 -1 0 0 0 0 0 0 -5 5 0 0. 9.
 15 1 1 2 0 0 3.27805 3.30601 0.408611 5 1.7768 0. -1
 -15 1 1 2 0 0 -3.27805 -3.30601 -0.408611 5 1.7768 0. 1
</event>
<event>
 4 80 1 -1 -1 -1
 11 -1 0 0 0 0 0 0 5 5 0 0. 9.
 -11 -1 0 0 0 0 0 0 -1.11788 1.11788 0 0. 9.
 15 1 1 2 0 0 1.18561 0.394496 0.733982 2.29298 1.7768 0. 1
 -15 1 1 2 0 0 -1.18561 -0.394496 3.14814 3.8249 1.7768 0. -1
</event>
<event>
 4 80 1 -1 -1 -1
 11 -1 0 0 0 0 0 0 5 5 0 0. 9.
 -11 -1 0 0 0 0 0 0 -5 5 0 0. 9.
 15 1 1 2 0 0 -0.427371 -4.02331 -2.33936 5 1.7768 0. 1
 -15 1 1 2 0 0 0.427371 4.02331 2.33936 5 1.7768 0. -1
</event>
<event>
 4 80 1 -1 -1 -1
 11 -1 0 0 0 0 0 0 4.94534 4.94534 0 0. 9.
 -11 -1 0 0 0 0 0 0 -4.99972 4.99972 0 0. 9.
 15 1 1 2 0 0 3.84971 -1.6952 -1.99536 4.98329 1.7768 0. 1
 -15 1 1 2 0 0 -3.84971 1.6952 1.94098 4.96176 1.7768 0. -1
</event>
<event>
 4 80 1 -1 -1 -1
 11 -1 0 0 0 0 0 0 5 5 0 0. 9.
 -11 -1 0 0 0 0 0 0 -2.86819 2.86819 0 0. 9.
 15 1 1 2 0 0 -1.45736 1.42712 -1.6871 3.1882 1.7768 0. -1
 -15 1 1 2 0 0 1.45736 -1.42712 3.81891 4.67999 1.7768 0. 1
</event>
<event>
 4 80 1 -1 -1 -1
 11 -1 0 0 0 0 0 0 4.99072 4.99072 0 0. 9.
 -11 -1 0 0 0 0 0 0 -4.93987 4.93987 0 0. 9.
 15 1 1 2 0 0 -4.07258 -0.00162551 2.24128 4.97664 1.7768 0. 1
 -15 1 1 2 0 0 4.07258 0.00162551 -2.19043 4.95395 1.7768 0. -1
</event>
<event>
 4 80 1 -1 -1 -1
 11 -1 0 0 0 0 0 0 5 5 0 0. 9.
 -11 -1 0 0 0 0 0 0 -4.51419 4.51419 0 0. 9.
 15 1 1 2 0 0 -3.64175 2.376 0.954828 4.79345 1.7768 0. -1
 -15 1 1 2 0 0 3.64175 -2.376 -0.469022 4.72074 1.7768 0. 1
</event>
<event>
 4 80 1 -1 -1 -1
 11 -1 0 0 0 0 0 0 4.69342 4.69342 0 0. 9.
 -11 -1 0 0 0 0 0 0 -4.99994 4.99994 0 0. 9.
 15 1 1 2 0 0 -2.53618 2.85541 -2.54684 4.92237 1.7768 0. 1
 -15 1 1 2 0 0 2.53618 -2.85541 2.24032 4.77099 1.7768 0. -1
</event>
<event>
 4 80 1 -1 -1 -1
 11 -1 0 0 0 0 0 0 4.99857 4.99857 0 0. 9.
 -11 -1 0 0 0 0 0 0 -2.51733 2.51733 0 0. 9.
 15 1 1 2 0 0 -2.85816 0.990332 0.684611 3.57439 1.7768 0. -1
 -15 1 1 2 0 0 2.85816 -0.990332 1.79663 3.9415 1.7768 0. 1
</event>
<event>
 4 80 1 -1 -1 -1
 11 -1 0 0 0 0 0 0 5 5 0 0. 9.
 -11 -1 0 0 0 0 0 0 -4.98888 4.98888 0 0. 9.
 15 1 1 2 0 0 -4.03753 2.03284 -1.15745 4.99315 1.7768 0. -1
 -15 1 1 2 0 0 4.03753 -2.03284 1.16857 4.99574 1.7768 0. 1
</event>
<event>
 4 80 1 -1 -1 -1
 11 -1 0 0 0 0 0 0 2.219 2.219 0 0. 9.
 -11 -1 0 0 0 0 0 0 -4.90726 4.90726 0 0. 9.
 15 1 1 2 0 0 -0.685101 -0.325532 1.54438 2.47349 1.7768 0. -1
 -15 1 1 2 0 0 0.685101 0.325532 -4.23264 4.65277 1.7768 0. 1
</event>
<event>
 4 80 1 -1 -1 -1
 11 -1 0 0 0 0 0 0 5 5 0 0. 9.
 -11 -1 0 0 0 0 0 0 -5 5 0 0. 9.
 15 1 1 2 0 0 -0.872171 -0.954823 4.49109 5 1.7768 0. -1
 -15 1 1 2 0 0 0.872171 0.954823 -4.49109 5 1.7768 0. 1
</event>
<event>
 4 80 1 -1 -1 -1
 11 -1 0 0 0 0 0 0 4.43668 4.43668 0 0. 9.
 -11 -1 0 0 0 0 0 0 -4.96807 4.96807 0 0. 9.
 15 1 1 2 0 0 3.7379 0.699466 -2.37212 4.8214 1.7768 0. -1
 -15 1 1 2 0 0 -3.7379 -0.699466 1.84073 4.58336 1.7768 0. 1
</event>
<event>
 4 80 1 -1 -1 -1
 11 -1 0 0 0 0 0 0 5 5 0 0. 9.
 -11 -1 0 0 0 0 0 0 -5 5 0 0. 9.
 15 1 1 2 0 0 -1.88436 -1.22026 4.09907 5 1.7768 0. 1
 -15 1 1 2 0 0 1.88436 1.22026 -4.09907 5 1.7768 0. -1
</event>
<event>
 4 80 1 -1 -1 -1
 11 -1 0 0 0 0 0 0 4.98974 4.98974 0 0. 9.
 -11 -1 0 0 0 0 0 0 -5 5 0 0. 9.
 15 1 1 2 0 0 2.71841 -0.558166 -3.75875 4.99872 1.7768 0. 1
 -15 1 1 2 0 0 -2.71841 0.558166 3.74849 4.99101 1.7768 0. -1
</event>
<event>
 4 80 1 -1 -1 -1
 11 -1 0 0 0 0 0 0 5 5 0 0. 9.
 -11 -1 0 0 0 0 0 0 -5 5 0 0. 9.
 15 1 1 2 0 0 -2.93706 1.30925 -3.39143 5 1.7768 0. 1
 -15 1 1 2 0 0 2.93706 -1.30925 3.39143 5 1.7768 0. -1
</event>
<event>
 4 80 1 -1 -1 -1
 11 -1 0 0 0 0 0 0 5 5 0 0. 9.
 -11 -1 0 0 0 0 0 0 -5 5 0 0. 9.
 15 1 1 2 0 0 0.598916 -2.7346 -3.74239 5 1.7768 0. 1
 -15 1 1 2 0 0 -0.598916 2.7346 3.74239 5 1.7768 0. -1
</event>
<event>
 4 80 1 -1 -1 -1
 11 -1 0 0 0 0 0 0 5 5 0 0. 9.
 -11 -1 0 0 0 0 0 0 -4.94429 4.94429 0 0. 9.
 15 1 1 2 0 0 -2.9361 0.511408 3.58902 4.9921 1.7768 0. -1
 -15 1 1 2 0 0 2.9361 -0.511408 -3.53332 4.9522 1.7768 0. 1
</event>
<event>
 4 80 1 -1 -1 -1
 11 -1 0 0 0 0 0 0 4.92825 4.92825 0 0. 9.
 -11 -1 0 0 0 0 0 0 -4.99944 4.99944 0 0. 9.
 15 1 1 2 0 0 1.36507 1.57926 4.10254 4.93417 1.7768 0. 1
 -15 1 1 2 0 0 -1.36507 -1.57926 -4.17373 4.99352 1.7768 0. -1
</event>
<event>
 4 80 1 -1 -1 -1
 11 -1 0 0 0 0 0 0 5 5 0 0. 9.
 -11 -1 0 0 0 0 0 0 -5 5 0 0. 9.
 15 1 1 2 0 0 -1.98612 -3.63985 2.15617 5 1.7768 0. -1
 -15 1 1 2 0 0 1.98612 3.63985 -2.15617 5 1.7768 0. 1
</event>
<event>
 4 80 1 -1 -1 -1
 11 -1 0 0 0 0 0 0 4.99995 4.99995 0 0. 9.
 -11 -1 0 0 0 0 0 0 -5 5 0 0. 9.
 15 1 1 2 0 0 2.20167 -1.43613 3.8642 4.99996 1.7768 0. 1
 -15 1 1 2 0 0 -2.20167 1.43613 -3.86425 4.99999 1.7768 0. -1
</event>
<event>
 4 80 1 -1 -1 -1
 11 -1 0 0 0 0 0 0 5 5 0 0. 9.
 -11 -1 0 0 0 0 0 0 -5 5 0 0. 9.
 15 1 1 2 0 0 3.33197 -2.15061 -2.47287 5 1.7768 0. -1
 -15 1 1 2 0 0 -3.33197 2.15061 2.47287 5 1.7768 0. 1
</event>
<event>
 4 80 1 -1 -1 -1
 11 -1 0 0 0 0 0 0 5 5 0 0. 9.
 -11 -1 0 0 0 0 0 0 -4.94925 4.94925 0 0. 9.
 15 1 1 2 0 0 -2.39619 1.18645 3.82531 4.99401 1.7768 0. 1
 -15 1 1 2 0 0 2.39619 -1.18645 -3.77456 4.95524 1.7768 0. -1
</event>
<event>
 4 80 1 -1 -1 -1
 11 -1 0 0 0 0 0 0 5 5 0 0. 9.
 -11 -1 0 0 0 0 0 0 -5 5 0 0. 9.
 15 1 1 2 0 0 4.66333 0.233442 -0.202761 5 1.7768 0. -1
 -15 1 1 2 0 0 -4.66333 -0.233442 0.202762 5 1.7768 0. 1
</event>
<event>
 4 80 1 -1 -1 -1
 11 -1 0 0 0 0 0 0 4.99976 4.99976 0 0. 9.
 -11 -1 0 0 0 0 0 0 -5 5 0 0. 9.
 15 1 1 2 0 0 -0.473346 -1.8952 4.24549 4.99978 1.7768 0. -1
 -15 1 1 2 0 0 0.473346 1.8952 -4.24573 4.99998 1.7768 0. 1
</event>
<event>
 4 80 1 -1 -1 -1
 11 -1 0 0 0 0 0 0 5 5 0 0. 9.
 -11 -1 0 0 0 0 0 0 -5 5 0 0. 9.
 15 1 1 2 0 0 2.36158 0.976966 -3.91289 5 1.7768 0. 1
 -15 1 1 2 0 0 -2.36158 -0.976966 3.91289 5 1.7768 0. -1
</event>
<event>
 4 80 1 -1 -1 -1
 11 -1 0 0 0 0 0 0 4.99993 4.99993 0 0. 9.
 -11 -1 0 0 0 0 0 0 -4.99101 4.99101 0 0. 9.
 15 1 1 2 0 0 -1.33617 -4.40496 0.784149 4.99616 1.7768 0. -1
 -15 1 1 2 0 0 1.33617 4.40496 -0.775224 4.99477 1.7768 0. 1
</event>
<event>
 4 80 1 -1 -1 -1
 11 -1 0 0 0 0 0 0 5 5 0 0. 9.
 -11 -1 0 0 0 0 0 0 -4.28214 4.28214 0 0. 9.
 15 1 1 2 0 0 -3.72104 1.33064 1.98746 4.76702 1.7768 0. -1
 -15 1 1 2 0 0 3.72104 -1.33064 -1.26959 4.51512 1.7768 0. 1
</event>
<event>
 4 80 1 -1 -1 -1
 11 -1 0 0 0 0 0 0 5 5 0 0. 9.
 -11 -1 0 0 0 0 0 0 -5 5 0 0. 9.
 15 1 1 2 0 0 -1.24622 -2.99263 -3.3665 5 1.7768 0. -1
 -15 1 1 2 0 0 1.24622 2.99263 3.3665 5 1.7768 0. 1
</event>
<event>
 4 80 1 -1 -1 -1
 11 -1 0 0 0 0 0 0 5 5 0 0. 9.
 -11 -1 0 0 0 0 0 0 -3.9684 3.9684 0 0. 9.
 15 1 1 2 0 0 3.83181 -1.40531 0.351659 4.46532 1.7768 0. 1
 -15 1 1 2 0 0 -3.83181 1.40531 0.679938 4.50308 1.7768 0. -1
</event>
<event>
 4 80 1 -1 -1 -1
 11 -1 0 0 0 0 0 0 5 5 0 0. 9.
 -11 -1 0 0 0 0 0 0 -5 5 0 0. 9.
 15 1 1 2 0 0 -4.21128 0.0221935 2.02656 5 1.7768 0. 1
 -15 1 1 2 0 0 4.21128 -0.0221935 -2.02656 5 1.7768 0. -1
</event>
<event>
 4 80 1 -1 -1 -1
 11 -1 0 0 0 0 0 0 4.99978 4.99978 0 0. 9.
 -11 -1 0 0 0 0 0 0 -4.99999 4.99999 0 0. 9.
 15 1 1 2 0 0 -3.46243 -3.04765 -0.751441 4.9999 1.7768 0. 1
 -15 1 1 2 0 0 3.46243 3.04765 0.751227 4.99987 1.7768 0. -1
</event>
<event>
 4 80 1 -1 -1 -1
 11 -1 0 0 0 0 0 0 4.99972 4.99972 0 0. 9.
 -11 -1 0 0 0 0 0 0 -5 5 0 0. 9.
 15 1 1 2 0 0 -4.37863 -1.46495 0.722638 4.99984 1.7768 0. -1
 -15 1 1 2 0 0 4.37863 1.46495 -0.722911 4.99988 1.7768 0. 1
</event>
<event>
 4 80 1 -1 -1 -1
 11 -1 0 0 0 0 0 0 5 5 0 0. 9.
 -11 -1 0 0 0 0 0 0 -4.97972 4.97972 0 0. 9.
 15 1 1 2 0 0 -3.56587 2.67512 1.37731 4.99264 1.7768 0. -1
 -15 1 1 2 0 0 3.56587 -2.67512 -1.35703 4.98708 1.7768 0. 1
</event>
<event>
 4 80 1 -1 -1 -1
 11 -1 0 0 0 0 0 0 4.99971 4.99971 0 0. 9.
 -11 -1 0 0 0 0 0 0 -3.89241 3.89241 0 0. 9.
 15 1 1 2 0 0 0.16475 1.76953 -3.10037 3.99104 1.7768 0. -1
 -15 1 1 2 0 0 -0.16475 -1.76953 4.20767 4.90108 1.7768 0. 1
</event>
<event>
 4 80 1 -1 -1 -1
 11 -1 0 0 0 0 0 0 5 5 0 0. 9.
 -11 -1 0 0 0 0 0 0 -4.69385 4.69385 0 0. 9.
 15 1 1 2 0 0 -3.0575 2.67229 -1.80293 4.78515 1.7768 0. 1
 -15 1 1 2 0 0 3.0575 -2.67229 2.10908 4.9087 1.7768 0. -1
</event>
<event>
 4 80 1 -1 -1 -1
 11 -1 0 0 0 0 0 0 5 5 0 0. 9.
 -11 -1 0 0 0 0 0 0 -5 5 0 0. 9.
 15 1 1 2 0 0 -1.08296 4.05808 2.04975 5 1.7768 0. -1
 -15 1 1 2 0 0 1.08296 -4.05808 -2.04975 5 1.7768 0. 1
</event>
<event>
 4 80 1 -1 -1 -1
 11 -1 0 0 0 0 0 0 4.15903 4.15903 0 0. 9.
 -11 -1 0 0 0 0 0 0 -5 5 0 0. 9.
 15 1 1 2 0 0 2.12472 -2.34946 2.34858 4.32527 1.7768 0. 1
 -15 1 1 2 0 0 -2.12472 2.34946 -3.18954 4.83377 1.7768 0. -1
</event>
<event>
 4 80 1 -1 -1 -1
 11 -1 0 0 0 0 0 0 5 5 0 0. 9.
 -11 -1 0 0 0 0 0 0 -5 5 0 0. 9.
 15 1 1 2 0 0 -0.114945 4.45322 -1.41345 5 1.7768 0. -1
 -15 1 1 2 0 0 0.114945 -4.45322 1.41345 5 1.7768 0. 1
</event>
<event>
 4 80 1 -1 -1 -1
 11 -1 0 0 0 0 0 0 5 5 0 0. 9.
 -11 -1 0 0 0 0 0 0 -4.97481 4.97481 0 0. 9.
 15 1 1 2 0 0 0.222868 -3.68711 2.8537 4.99458 1.7768 0. -1
 -15 1 1 2 0 0 -0.222868 3.68711 -2.82851 4.98023 1.7768 0. 1
</event>
<event>
 4 80 1 -1 -1 -1
 11 -1 0 0 0 0 0 0 1.70013 1.70013 0 0. 9.
 -11 -1 0 0 0 0 0 0 -4.94645 4.94645 0 0. 9.
 15 1 1 2 0 0 -0.552908 1.35848 -3.64111 4.3089 1.7768 0. -1
 -15 1 1 2 0 0 0.552908 -1.35848 0.394797 2.33768 1.7768 0. 1
</event>
<event>
 4 80 1 -1 -1 -1
 11 -1 0 0 0 0 0 0 4.99573 4.99573 0 0. 9.
 -11 -1 0 0 0 0 0 0 -3.95256 3.95256 0 0. 9.
 15 1 1 2 0 0 -1.9886 1.06618 3.93558 4.87214 1.7768 0. 1
 -15 1 1 2 0 0 1.9886 -1.06618 -2.89241 4.07615 1.7768 0. -1
</event>
<event>
 4 80 1 -1 -1 -1
 11 -1 0 0 0 0 0 0 5 5 0 0. 9.
 -11 -1 0 0 0 0 0 0 -4.66472 4.66472 0 0. 9.
 15 1 1 2 0 0 1.76742 4.12677 0.276512 4.83614 1.7768 0. 1
 -15 1 1 2 0 0 -1.76742 -4.12677 0.0587685 4.82858 1.7768 0. -1
</event>
<event>
 4 80 1 -1 -1 -1
 11 -1 0 0 0 0 0 0 5 5 0 0. 9.
 -11 -1 0 0 0 0 0 0 -4.95951 4.95951 0 0. 9.
 15 1 1 2 0 0 0.242109 -3.57993 2.98089 4.99179 1.7768 0. -1
 -15 1 1 2 0 0 -0.242109 3.57993 -2.9404 4.96772 1.7768 0. 1
</event>
<event>
 4 80 1 -1 -1 -1
 11 -1 0 0 0 0 0 0 5 5 0 0. 9.
 -11 -1 0 0 0 0 0 0 -5 5 0 0. 9.
 15 1 1 2 0 0 2.76376 0.660206 3.71053 5 1.7768 0. 1
 -15 1 1 2 0 0 -2.76376 -0.660206 -3.71053 5 1.7768 0. -1
</event>
<event>
 4 80 1 -1 -1 -1
 11 -1 0 0 0 0 0 0 4.28141 4.28141 0 0. 9.
 -11 -1 0 0 0 0 0 0 -4.66991 4.66991 0 0. 9.
 15 1 1 2 0 0 -2.33244 0.524666 -3.53213 4.62053 1.7768 0. -1
 -15 1 1 2 0 0 2.33244 -0.524666 3.14364 4.33079 1.7768 0. 1
</event>
<event>
 4 80 1 -1 -1 -1
 11 -1 0 0 0 0 0 0 5 5 0 0. 9.
 -11 -1 0 0 0 0 0 0 -5 5 0 0. 9.
 15 1 1 2 0 0 -2.76287 -3.7666 -0.146672 5 1.7768 0. 1
 -15 1 1 2 0 0 2.76287 3.7666 0.146672 5 1.7768 0. -1
</event>
<event>
 4 80 1 -1 -1 -1
 11 -1 0 0 0 0 0 0 1.41707 1.41707 0 0. 9.
 -11 -1 0 0 0 0 0 0 -4.99967 4.99967 0 0. 9.
 15 1 1 2 0 0 -1.27 -0.56918 -0.090817 2.25895 1.7768 0. 1
 -15 1 1 2 0 0 1.27 0.56918 -3.49179 4.15778 1.7768 0. -1
</event>
<event>
 4 80 1 -1 -1 -1
 11 -1 0 0 0 0 0 0 4.99987 4.99987 0 0. 9.
 -11 -1 0 0 0 0 0 0 -5 5 0 0. 9.
 15 1 1 2 0 0 -0.198441 -4.16691 2.10684 4.9999 1.7768 0. -1
 -15 1 1 2 0 0 0.198441 4.16691 -2.10697 4.99996 1.7768 0. 1
</event>
<event>
 4 80 1 -1 -1 -1
 11 -1 0 0 0 0 0 0 5 5 0 0. 9.
 -11 -1 0 0 0 0 0 0 -4.99683 4.99683 0 0. 9.
 15 1 1 2 0 0 -2.13851 -4.00649 -1.0944 4.99807 1.7768 0. -1
 -15 1 1 2 0 0 2.13851 4.00649 1.09758 4.99876 1.7768 0. 1
</event>
<event>
 4 80 1 -1 -1 -1
 11 -1 0 0 0 0 0 0 4.9988 4.9988 0 0. 9.
 -11 -1 0 0 0 0 0 0 -4.99658 4.99658 0 0. 9.
 15 1 1 2 0 0 0.162659 -0.208912 4.6647 4.99872 1.7768 0. 1
 -15 1 1 2 0 0 -0.162659 0.208912 -4.66248 4.99665 1.7768 0. -1
</event>
<event>
 4 80 1 -1 -1 -1
 11 -1 0 0 0 0 0 0 4.99997 4.99997 0 0. 9.
 -11 -1 0 0 0 0 0 0 -5 5 0 0. 9.
 15 1 1 2 0 0 2.39928 1.74281 -3.61225 5 1.7768 0. -1
 -15 1 1 2 0 0 -2.39928 -1.74281 3.61222 4.99998 1.7768 0. 1
</event>
<event>
 4 80 1 -1 -1 -1
 11 -1 0 0 0 0 0 0 5 5 0 0. 9.
 -11 -1 0 0 0 0 0 0 -5 5 0 0. 9.
 15 1 1 2 0 0 -1.58648 -1.83871 -3.99306 5 1.7768 0. 1
 -15 1 1 2 0 0 1.58648 1.83871 3.99305 5 1.7768 0. -1
</event>
<event>
 4 80 1 -1 -1 -1
 11 -1 0 0 0 0 0 0 5 5 0 0. 9.
 -11 -1 0 0 0 0 0 0 -5 5 0 0. 9.
 15 1 1 2 0 0 1.59364 -4.26022 1.07382 5 1.7768 0. -1
 -15 1 1 2 0 0 -1.59364 4.26022 -1.07382 5 1.7768 0. 1
</event>
<event>
 4 80 1 -1 -1 -1
 11 -1 0 0 0 0 0 0 5 5 0 0. 9.
 -11 -1 0 0 0 0 0 0 -5 5 0 0. 9.
 15 1 1 2 0 0 2.5034 1.1177 -3.78497 5 1.7768 0. 1
 -15 1 1 2 0 0 -2.5034 -1.1177 3.78497 5 1.7768 0. -1
</event>
<event>
 4 80 1 -1 -1 -1
 11 -1 0 0 0 0 0 0 4.99994 4.99994 0 0. 9.
 -11 -1 0 0 0 0 0 0 -4.98012 4.98012 0 0. 9.
 15 1 1 2 0 0 3.16227 -3.34622 -0.728632 4.98856 1.7768 0. 1
 -15 1 1 2 0 0 -3.16227 3.34622 0.748445 4.9915 1.7768 0. -1
</event>
<event>
 4 80 1 -1 -1 -1
 11 -1 0 0 0 0 0 0 5 5 0 0. 9.
 -11 -1 0 0 0 0 0 0 -5 5 0 0. 9.
 15 1 1 2 0 0 2.00025 -0.478412 4.19671 5 1.7768 0. -1
 -15 1 1 2 0 0 -2.00025 0.478412 -4.19671 5 1.7768 0. 1
</event>
<event>
 4 80 1 -1 -1 -1
 11 -1 0 0 0 0 0 0 4.12588 4.12588 0 0. 9.
 -11 -1 0 0 0 0 0 0 -5 5 0 0. 9.
 15 1 1 2 0 0 0.261025 -2.28657 3.06834 4.22717 1.7768 0. 1
 -15 1 1 2 0 0 -0.261025 2.28657 -3.94247 4.8987 1.7768 0. -1
</event>
<event>
 4 80 1 -1 -1 -1
 11 -1 0 0 0 0 0 0 4.99967 4.99967 0 0. 9.
 -11 -1 0 0 0 0 0 0 -5 5 0 0. 9.
 15 1 1 2 0 0 3.24205 -2.07999 -2.64655 4.99992 1.7768 0. -1
 -15 1 1 2 0 0 -3.24205 2.07999 2.64621 4.99975 1.7768 0. 1
</event>
<event>
 4 80 1 -1 -1 -1
 11 -1 0 0 0 0 0 0 5 5 0 0. 9.
 -11 -1 0 0 0 0 0 0 -0.774644 0.774644 0 0. 9.
 15 1 1 2 0 0 0.609087 0.173707 1.29014 2.28547 1.7768 0. 1
 -15 1 1 2 0 0 -0.609087 -0.173707 2.93521 3.48918 1.7768 0. -1
</event>
<event>
 4 80 1 -1 -1 -1
 11 -1 0 0 0 0 0 0 5 5 0 0. 9.
 -11 -1 0 0 0 0 0 0 -5 5 0 0. 9.
 15 1 1 2 0 0 4.50338 0.166849 -1.23856 5 1.7768 0. 1
 -15 1 1 2 0 0 -4.50338 -0.166849 1.23856 5 1.7768 0. -1
</event>
<event>
 4 80 1 -1 -1 -1
 11 -1 0 0 0 0 0 0 4.98217 4.98217 0 0. 9.
 -11 -1 0 0 0 0 0 0 -5 5 0 0. 9.
 15 1 1 2 0 0 1.67693 -2.19085 3.75157 4.98437 1.7768 0. -1
 -15 1 1 2 0 0 -1.67693 2.19085 -3.7694 4.9978 1.7768 0. 1
</event>
<event>
 4 80 1 -1 -1 -1
 11 -1 0 0 0 0 0 0 5 5 0 0. 9.
 -11 -1 0 0 0 0 0 0 -4.94337 4.94337 0 0. 9.
 15 1 1 2 0 0 -1.76521 -1.62312 4.00439 4.99433 1.7768 0. -1
 -15 1 1 2 0 0 1.76521 1.62312 -3.94776 4.94904 1.7768 0. 1
</event>
<event>
 4 80 1 -1 -1 -1
 11 -1 0 0 0 0 0 0 5 5 0 0. 9.
 -11 -1 0 0 0 0 0 0 -5 5 0 0. 9.
 15 1 1 2 0 0 -4.3583 -0.162877 1.67957 5 1.7768 0. -1
 -15 1 1 2 0 0 4.3583 0.162877 -1.67957 5 1.7768 0. 1
</event>
<event>
 4 80 1 -1 -1 -1
 11 -1 0 0 0 0 0 0 5 5 0 0. 9.
 -11 -1 0 0 0 0 0 0 -3.92672 3.92672 0 0. 9.
 15 1 1 2 0 0 -2.47364 -3.13368 1.2748 4.55211 1.7768 0. 1
 -15 1 1 2 0 0 2.47364 3.13368 -0.201525 4.37461 1.7768 0. -1
</event>
<event>
 4 80 1 -1 -1 -1
 11 -1 0 0 0 0 0 0 5 5 0 0. 9.
 -11 -1 0 0 0 0 0 0 -2.36393 2.36393 0 0. 9.
 15 1 1 2 0 0 0.234277 -0.760869 -1.71645 2.59571 1.7768 0. 1
 -15 1 1 2 0 0 -0.234277 0.760869 4.35251 4.76822 1.7768 0. -1
</event>
<event>
 4 80 1 -1 -1 -1
 11 -1 0 0 0 0 0 0 4.99991 4.99991 0 0. 9.
 -11 -1 0 0 0 0 0 0 -5 5 0 0. 9.
 15 1 1 2 0 0 -1.51969 4.34452 -0.810916 4.99996 1.7768 0. -1
 -15 1 1 2 0 0 1.51969 -4.34452 0.810823 4.99995 1.7768 0. 1
</event>
<event>
 4 80 1 -1 -1 -1
 11 -1 0 0 0 0 0 0 5 5 0 0. 9.
 -11 -1 0 0 0 0 0 0 -5 5 0 0. 9.
 15 1 1 2 0 0 1.35597 -4.13807 1.69705 5 1.7768 0. 1
 -15 1 1 2 0 0 -1.35597 4.13807 -1.69705 5 1.7768 0. -1
</event>
<event>
 4 80 1 -1 -1 -1
 11 -1 0 0 0 0 0 0 4.57066 4.57066 0 0. 9.
 -11 -1 0 0 0 0 0 0 -4.999 4.999 0 0. 9.
 15 1 1 2 0 0 0.962752 -1.98305 -4.06922 4.95738 1.7768 0. -1
 -15 1 1 2 0 0 -0.962752 1.98305 3.64088 4.61228 1.7768 0. 1
</event>
<event>
 4 80 1 -1 -1 -1
 11 -1 0 0 0 0 0 0 5 5 0 0. 9.
 -11 -1 0 0 0 0 0 0 -5 5 0 0. 9.
 15 1 1 2 0 0 2.12237 -1.13593 4.00593 5 1.7768 0. -1
 -15 1 1 2 0 0 -2.12237 1.13593 -4.00593 5 1.7768 0. 1
</event>
<event>
 4 80 1 -1 -1 -1
 11 -1 0 0 0 0 0 0 5 5 0 0. 9.
 -11 -1 0 0 0 0 0 0 -5 5 0 0. 9.
 15 1 1 2 0 0 1.62795 -4.34934 -0.524635 5 1.7768 0. -1
 -15 1 1 2 0 0 -1.62795 4.34934 0.524635 5 1.7768 0. 1
</event>
<event>
 4 80 1 -1 -1 -1
 11 -1 0 0 0 0 0 0 4.99784 4.99784 0 0. 9.
 -11 -1 0 0 0 0 0 0 -5 5 0 0. 9.
 15 1 1 2 0 0 2.41376 0.548219 3.96184 4.99807 1.7768 0. -1
 -15 1 1 2 0 0 -2.41376 -0.548219 -3.964 4.99978 1.7768 0. 1
</event>
<event>
 4 80 1 -1 -1 -1
 11 -1 0 0 0 0 0 0 4.95983 4.95983 0 0. 9.
 -11 -1 0 0 0 0 0 0 -5 5 0 0. 9.
 15 1 1 2 0 0 2.03057 -4.14894 0.531769 4.97769 1.7768 0. 1
 -15 1 1 2 0 0 -2.03057 4.14894 -0.571942 4.98214 1.7768 0. -1
</event>
<event>
 4 80 1 -1 -1 -1
 11 -1 0 0 0 0 0 0 4.99889 4.99889 0 0. 9.
 -11 -1 0 0 0 0 0 0 -0.881987 0.881987 0 0. 9.
 15 1 1 2 0 0 0.113165 1.00615 2.72431 3.40657 1.7768 0. -1
 -15 1 1 2 0 0 -0.113165 -1.00615 1.39259 2.4743 1.7768 0. 1
</event>
<event>
 4 80 1 -1 -1 -1
 11 -1 0 0 0 0 0 0 4.99985 4.99985 0 0. 9.
 -11 -1 0 0 0 0 0 0 -4.99676 4.99676 0 0. 9.
 15 1 1 2 0 0 -4.27281 -1.83347 0.456342 4.99845 1.7768 0. -1
 -15 1 1 2 0 0 4.27281 1.83347 -0.453249 4.99817 1.7768 0. 1
</event>
<event>
 4 80 1 -1 -1 -1
 11 -1 0 0 0 0 0 0 4.99996 4.99996 0 0. 9.
 -11 -1 0 0 0 0 0 0 -4.86516 4.86516 0 0. 9.
 15 1 1 2 0 0 -1.56046 -3.22594 -2.81838 4.89313 1.7768 0. -1
 -15 1 1 2 0 0 1.56046 3.22594 2.95318 4.97199 1.7768 0. 1
</event>
<event>
 4 80 1 -1 -1 -1
 11 -1 0 0 0 0 0 0 5 5 0 0. 9.
 -11 -1 0 0 0 0 0 0 -5 5 0 0. 9.
 15 1 1 2 0 0 -3.45228 -0.869804 3.02779 5 1.7768 0. 1
 -15 1 1 2 0 0 3.45228 0.869804 -3.02779 5 1.7768 0. -1
</event>
<event>
 4 80 1 -1 -1 -1
 11 -1 0 0 0 0 0 0 5 5 0 0. 9.
 -11 -1 0 0 0 0 0 0 -5 5 0 0. 9.
 15 1 1 2 0 0 1.15605 0.419529 -4.50886 5 1.7768 0. 1
 -15 1 1 2 0 0 -1.15605 -0.419529 4.50886 5 1.7768 0. -1
</event>
<event>
 4 80 1 -1 -1 -1
 11 -1 0 0 0 0 0 0 4.99926 4.99926 0 0. 9.
 -11 -1 0 0 0 0 0 0 -5 5 0 0. 9.
 15 1 1 2 0 0 2.16224 -2.65262 3.18191 4.99939 1.7768 0. -1
 -15 1 1 2 0 0 -2.16224 2.65262 -3.18265 4.99987 1.7768 0. 1
</event>
<event>
 4 80 1 -1 -1 -1
 11 -1 0 0 0 0 0 0 3.90142 3.90142 0 0. 9.
 -11 -1 0 0 0 0 0 0 -5 5 0 0. 9.
 15 1 1 2 0 0 -3.07245 -2.54276 -1.2206 4.53356 1.7768 0. 1
 -15 1 1 2 0 0 3.07245 2.54276 0.122027 4.36786 1.7768 0. -1
</event>
<event>
 4 80 1 -1 -1 -1
 11 -1 0 0 0 0 0 0 4.9885 4.9885 0 0. 9.
 -11 -1 0 0 0 0 0 0 -5 5 0 0. 9.
 15 1 1 2 0 0 2.53246 1.81904 3.46736 4.99025 1.7768 0. 1
 -15 1 1 2 0 0 -2.53246 -1.81904 -3.47887 4.99825 1.7768 0. -1
</event>
<event>
 4 80 1 -1 -1 -1
 11 -1 0 0 0 0 0 0 1.57039 1.57039 0 0. 9.
 -11 -1 0 0 0 0 0 0 -5 5 0 0. 9.
 15 1 1 2 0 0 1.16623 -1.12493 -0.0285604 2.40501 1.7768 0. 1
 -15 1 1 2 0 0 -1.16623 1.12493 -3.40104 4.16538 1.7768 0. -1
</event>
<event>
 4 80 1 -1 -1 -1
 11 -1 0 0 0 0 0 0 4.90089 4.90089 0 0. 9.
 -11 -1 0 0 0 0 0 0 -5 5 0 0. 9.
 15 1 1 2 0 0 -1.67086 -0.470196 4.23246 4.90758 1.7768 0. 1
 -15 1 1 2 0 0 1.67086 0.470196 -4.33158 4.99331 1.7768 0. -1
</event>
<event>
 4 80 1 -1 -1 -1
 11 -1 0 0 0 0 0 0 3.31573 3.31573 0 0. 9.
 -11 -1 0 0 0 0 0 0 -5 5 0 0. 9.
 15 1 1 2 0 0 3.41026 0.458861 -2.12593 4.41789 1.7768 0. 1
 -15 1 1 2 0 0 -3.41026 -0.458861 0.441659 3.89785 1.7768 0. -1
</event>
<event>
 4 80 1 -1 -1 -1
 11 -1 0 0 0 0 0 0 4.76036 4.76036 0 0. 9.
 -11 -1 0 0 0 0 0 0 -5 5 0 0. 9.
 15 1 1 2 0 0 -0.0631383 -1.08661 -4.53243 4.98852 1.7768 0. 1
 -15 1 1 2 0 0 0.0631383 1.08661 4.29279 4.77184 1.7768 0. -1
</event>
<event>
 4 80 1 -1 -1 -1
 11 -1 0 0 0 0 0 0 5 5 0 0. 9.
 -11 -1 0 0 0 0 0 0 -5 5 0 0. 9.
 15 1 1 2 0 0 -2.02213 -4.20082 0.326137 5 1.7768 0. 1
 -15 1 1 2 0 0 2.02213 4.20082 -0.326136 5 1.7768 0. -1
</event>
<event>
 4 80 1 -1 -1 -1
 11 -1 0 0 0 0 0 0 5 5 0 0. 9.
 -11 -1 0 0 0 0 0 0 -5 5 0 0. 9.
 15 1 1 2 0 0 -2.27374 3.01846 -2.74978 5 1.7768 0. 1
 -15 1 1 2 0 0 2.27374 -3.01846 2.74978 5 1.7768 0. -1
</event>
<event>
 4 80 1 -1 -1 -1
 11 -1 0 0 0 0 0 0 4.99999 4.99999 0 0. 9.
 -11 -1 0 0 0 0 0 0 -5 5 0 0. 9.
 15 1 1 2 0 0 -0.0646762 -4.17257 -2.10422 5 1.7768 0. 1
 -15 1 1 2 0 0 0.0646762 4.17257 2.10421 5 1.7768 0. -1
</event>
<event>
 4 80 1 -1 -1 -1
 11 -1 0 0 0 0 0 0 4.86409 4.86409 0 0. 9.
 -11 -1 0 0 0 0 0 0 -5 5 0 0. 9.
 15 1 1 2 0 0 -3.20244 2.75987 1.74612 4.90705 1.7768 0. -1
 -15 1 1 2 0 0 3.20244 -2.75987 -1.88203 4.95704 1.7768 0. 1
</event>
<event>
 4 80 1 -1 -1 -1
 11 -1 0 0 0 0 0 0 4.96622 4.96622 0 0. 9.
 -11 -1 0 0 0 0 0 0 -5 5 0 0. 9.
 15 1 1 2 0 0 3.38037 1.61301 -2.7818 4.99248 1.7768 0. -1
 -15 1 1 2 0 0 -3.38037 -1.61301 2.74802 4.97374 1.7768 0. 1
</event>
<event>
 4 80 1 -1 -1 -1
 11 -1 0 0 0 0 0 0 5 5 0 0. 9.
 -11 -1 0 0 0 0 0 0 -4.99638 4.99638 0 0. 9.
 15 1 1 2 0 0 3.71799 0.267866 2.81764 4.99921 1.7768 0. -1
 -15 1 1 2 0 0 -3.71799 -0.267866 -2.81402 4.99717 1.7768 0. 1
</event>
<event>
 4 80 1 -1 -1 -1
 11 -1 0 0 0 0 0 0 5 5 0 0. 9.
 -11 -1 0 0 0 0 0 0 -5 5 0 0. 9.
 15 1 1 2 0 0 4.03619 2.32068 -0.407293 5 1.7768 0. 1
 -15 1 1 2 0 0 -4.03619 -2.32068 0.407293 5 1.7768 0. -1
</event>
<event>
 4 80 1 -1 -1 -1
 11 -1 0 0 0 0 0 0 5 5 0 0. 9.
 -11 -1 0 0 0 0 0 0 -5 5 0 0. 9.
 15 1 1 2 0 0 -1.35828 2.98297 3.33155 5 1.7768 0. 1
 -15 1 1 2 0 0 1.35828 -2.98297 -3.33155 5 1.7768 0. -1
</event>
<event>
 4 80 1 -1 -1 -1
 11 -1 0 0 0 0 0 0 4.99982 4.99982 0 0. 9.
 -11 -1 0 0 0 0 0 0 -5 5 0 0. 9.
 15 1 1 2 0 0 1.86218 0.63891 4.23847 4.99983 1.7768 0. -1
 -15 1 1 2 0 0 -1.86218 -0.63891 -4.23866 4.99999 1.7768 0. 1
</event>
<event>
 4 80 1 -1 -1 -1
 11 -1 0 0 0 0 0 0 1.17107 1.17107 0 0. 9.
 -11 -1 0 0 0 0 0 0 -4.93369 4.93369 0 0. 9.
 15 1 1 2 0 0 -0.882119 -0.551607 -3.45593 4.02288 1.7768 0. 1
 -15 1 1 2 0 0 0.882119 0.551607 -0.306695 2.08187 1.7768 0. -1
</event>
<event>
 4 80 1 -1 -1 -1
 11 -1 0 0 0 0 0 0 5 5 0 0. 9.
 -11 -1 0 0 0 0 0 0 -5 5 0 0. 9.
 15 1 1 2 0 0 -3.37343 1.05466 -3.05776 5 1.7768 0. -1
 -15 1 1 2 0 0 3.37343 -1.05466 3.05776 5 1.7768 0. 1
</event>
<event>
 4 80 1 -1 -1 -1
 11 -1 0 0 0 0 0 0 4.99997 4.99997 0 0. 9.
 -11 -1 0 0 0 0 0 0 -4.99955 4.99955 0 0. 9.
 15 1 1 2 0 0 1.60414 -1.64117 -4.07081 4.99959 1.7768 0. 1
 -15 1 1 2 0 0 -1.60414 1.64117 4.07123 4.99993 1.7768 0. -1
</event>
<event>
 4 80 1 -1 -1 -1
 11 -1 0 0 0 0 0 0 4.99984 4.99984 0 0. 9.
 -11 -1 0 0 0 0 0 0 -4.99999 4.99999 0 0. 9.
 15 1 1 2 0 0 -0.30033 -2.78066 3.74414 4.99986 1.7768 0. -1
 -15 1 1 2 0 0 0.30033 2.78066 -3.74429 4.99997 1.7768 0. 1
</event>
<event>
 4 80 1 -1 -1 -1
 11 -1 0 0 0 0 0 0 4.99999 4.99999 0 0. 9.
 -11 -1 0 0 0 0 0 0 -5 5 0 0. 9.
 15 1 1 2 0 0 -1.2042 4.50232 0.348168 5 1.7768 0. -1
 -15 1 1 2 0 0 1.2042 -4.50232 -0.348174 5 1.7768 0. 1
</event>
<event>
 4 80 1 -1 -1 -1
 11 -1 0 0 0 0 0 0 4.99663 4.99663 0 0. 9.
 -11 -1 0 0 0 0 0 0 -4.99994 4.99994 0 0. 9.
 15 1 1 2 0 0 2.63782 0.676295 3.79435 4.99703 1.7768 0. -1
 -15 1 1 2 0 0 -2.63782 -0.676295 -3.79765 4.99954 1.7768 0. 1
</event>
<event>
 4 80 1 -1 -1 -1
 11 -1 0 0 0 0 0 0 5 5 0 0. 9.
 -11 -1 0 0 0 0 0 0 -5 5 0 0. 9.
 15 1 1 2 0 0 0.440139 4.59638 -0.722366 5 1.7768 0. 1
 -15 1 1 2 0 0 -0.440139 -4.59638 0.722367 5 1.7768 0. -1
</event>
<event>
 4 80 1 -1 -1 -1
 11 -1 0 0 0 0 0 0 4.94984 4.94984 0 0. 9.
 -11 -1 0 0 0 0 0 0 -5 5 0 0. 9.
 15 1 1 2 0 0 -2.20327 3.51976 2.06023 4.96441 1.7768 0. 1
 -15 1 1 2 0 0 2.20327 -3.51976 -2.11039 4.98543 1.7768 0. -1
</event>
<event>
 4 80 1 -1 -1 -1
 11 -1 0 0 0 0 0 0 5 5 0 0. 9.
 -11 -1 0 0 0 0 0 0 -4.99987 4.99987 0 0. 9.
 15 1 1 2 0 0 1.21338 1.20959 4.34819 4.99999 1.7768 0. -1
 -15 1 1 2 0 0 -1.21338 -1.20959 -4.34806 4.99988 1.7768 0. 1
</event>
<event>
 4 80 1 -1 -1 -1
 11 -1 0 0 0 0 0 0 5 5 0 0. 9.
 -11 -1 0 0 0 0 0 0 -5 5 0 0. 9.
 15 1 1 2 0 0 -2.12049 4.14849 -0.368562 5 1.7768 0. 1
 -15 1 1 2 0 0 2.12049 -4.14849 0.368562 5 1.7768 0. -1
</event>
<event>
 4 80 1 -1 -1 -1
 11 -1 0 0 0 0 0 0 4.97053 4.97053 0 0. 9.
 -11 -1 0 0 0 0 0 0 -5 5 0 0. 9.
 15 1 1 2 0 0 3.41239 1.19454 -2.95135 4.99394 1.7768 0. -1
 -15 1 1 2 0 0 -3.41239 -1.19454 2.92187 4.97658 1.7768 0. 1
</event>
<event>
 4 80 1 -1 -1 -1
 11 -1 0 0 0 0 0 0 5 5 0 0. 9.
 -11 -1 0 0 0 0 0 0 -5 5 0 0. 9.
 15 1 1 2 0 0 -3.04544 -2.51448 -2.49899 5 1.7768 0. 1
 -15 1 1 2 0 0 3.04544 2.51448 2.49899 5 1.7768 0. -1
</event>
<event>
 4 80 1 -1 -1 -1
 11 -1 0 0 0 0 0 0 5 5 0 0. 9.
 -11 -1 0 0 0 0 0 0 -4.99861 4.99861 0 0. 9.
 15 1 1 2 0 0 2.90159 1.6337 -3.27759 4.99885 1.7768 0. -1
 -15 1 1 2 0 0 -2.90159 -1.6337 3.27898 4.99976 1.7768 0. 1
</event>
<event>
 4 80 1 -1 -1 -1
 11 -1 0 0 0 0 0 0 5 5 0 0. 9.
 -11 -1 0 0 0 0 0 0 -5 5 0 0. 9.
 15 1 1 2 0 0 1.41647 -2.0857 3.93519 5 1.7768 0. 1
 -15 1 1 2 0 0 -1.41647 2.0857 -3.93519 5 1.7768 0. -1
</event>
<event>
 4 80 1 -1 -1 -1
 11 -1 0 0 0 0 0 0 5 5 0 0. 9.
 -11 -1 0 0 0 0 0 0 -4.99804 4.99804 0 0. 9.
 15 1 1 2 0 0 -0.153493 -3.4554 3.14249 4.99964 1.7768 0. -1
 -15 1 1 2 0 0 0.153493 3.4554 -3.14053 4.9984 1.7768 0. 1
</event>
<event>
 4 80 1 -1 -1 -1
 11 -1 0 0 0 0 0 0 5 5 0 0. 9.
 -11 -1 0 0 0 0 0 0 -4.99996 4.99996 0 0. 9.
 15 1 1 2 0 0 -0.0149786 2.86792 -3.69009 4.99997 1.7768 0. -1
 -15 1 1 2 0 0 0.0149786 -2.86792 3.69013 5 1.7768 0. 1
</event>
<event>
 4 80 1 -1 -1 -1
 11 -1 0 0 0 0 0 0 5 5 0 0. 9.
 -11 -1 0 0 0 0 0 0 -4.99928 4.99928 0 0. 9.
 15 1 1 2 0 0 -3.07288 -1.93298 -2.94237 4.99943 1.7768 0. -1
 -15 1 1 2 0 0 3.07288 1.93298 2.94309 4.99985 1.7768 0. 1
</event>
<event>
 4 80 1 -1 -1 -1
 11 -1 0 0 0 0 0 0 5 5 0 0. 9.
 -11 -1 0 0 0 0 0 0 -4.99999 4.99999 0 0. 9.
 15 1 1 2 0 0 -0.852706 3.52558 -2.94709 4.99999 1.7768 0. 1
 -15 1 1 2 0 0 0.852706 -3.52558 2.9471 5 1.7768 0. -1
</event>
<event>
 4 80 1 -1 -1 -1
 11 -1 0 0 0 0 0 0 1.17102 1.17102 0 0. 9.
 -11 -1 0 0 0 0 0 0 -4.99997 4.99997 0 0. 9.
 15 1 1 2 0 0 0.893902 0.806728 -3.33868 3.96918 1.7768 0. 1
 -15 1 1 2 0 0 -0.893902 -0.806728 -0.490266 2.20181 1.7768 0. -1
</event>
<event>
 4 80 1 -1 -1 -1
 11 -1 0 0 0 0 0 0 5 5 0 0. 9.
 -11 -1 0 0 0 0 0 0 -4.8376 4.8376 0 0. 9.
 15 1 1 2 0 0 -0.116447 -0.37209 4.6511 4.99424 1.7768 0. 1
 -15 1 1 2 0 0 0.116447 0.37209 -4.4887 4.84336 1.7768 0. -1
</event>
<event>
 4 80 1 -1 -1 -1
 11 -1 0 0 0 0 0 0 4.99976 4.99976 0 0. 9.
 -11 -1 0 0 0 0 0 0 -5 5 0 0. 9.
 15 1 1 2 0 0 -0.507386 4.57581 -0.803616 4.9999 1.7768 0. -1
 -15 1 1 2 0 0 0.507386 -4.57581 0.803382 4.99986 1.7768 0. 1
</event>
<event>
 4 80 1 -1 -1 -1
 11 -1 0 0 0 0 0 0 4.90747 4.90747 0 0. 9.
 -11 -1 0 0 0 0 0 0 -4.99964 4.99964 0 0. 9.
 15 1 1 2 0 0 0.647577 4.42074 -1.23591 4.96462 1.7768 0. -1
 -15 1 1 2 0 0 -0.647577 -4.42074 1.14374 4.94249 1.7768 0. 1
</event>
<event>
 4 80 1 -1 -1 -1
 11 -1 0 0 0 0 0 0 5 5 0 0. 9.
 -11 -1 0 0 0 0 0 0 -4.99789 4.99789 0 0. 9.
 15 1 1 2 0 0 2.22452 -3.83268 1.4822 4.99926 1.7768 0. -1
 -15 1 1 2 0 0 -2.22452 3.83268 -1.48008 4.99863 1.7768 0. 1
</event>
<event>
 4 80 1 -1 -1 -1
 11 -1 0 0 0 0 0 0 4.99998 4.99998 0 0. 9.
 -11 -1 0 0 0 0 0 0 -5 5 0 0. 9.
 15 1 1 2 0 0 -3.815 2.43048 -1.17504 4.99999 1.7768 0. 1
 -15 1 1 2 0 0 3.815 -2.43048 1.17502 4.99999 1.7768 0. -1
</event>
<event>
 4 80 1 -1 -1 -1
 11 -1 0 0 0 0 0 0 5 5 0 0. 9.
 -11 -1 0 0 0 0 0 0 -3.75109 3.75109 0 0. 9.
 15 1 1 2 0 0 -2.50958 1.65984 -1.96025 4.00667 1.7768 0. 1
 -15 1 1 2 0 0 2.50958 -1.65984 3.20916 4.74442 1.7768 0. -1
</event>
<event>
 4 80 1 -1 -1 -1
 11 -1 0 0 0 0 0 0 5 5 0 0. 9.
 -11 -1 0 0 0 0 0 0 -5 5 0 0. 9.
 15 1 1 2 0 0 -2.82109 1.65849 3.33663 5 1.7768 0. -1
 -15 1 1 2 0 0 2.82109 -1.65849 -3.33663 5 1.7768 0. 1
</event>
<event>
 4 80 1 -1 -1 -1
 11 -1 0 0 0 0 0 0 5 5 0 0. 9.
 -11 -1 0 0 0 0 0 0 -5 5 0 0. 9.
 15 1 1 2 0 0 -4.10438 -0.877623 2.05575 5 1.7768 0. -1
 -15 1 1 2 0 0 4.10438 0.877623 -2.05575 5 1.7768 0. 1
</event>
<event>
 4 80 1 -1 -1 -1
 11 -1 0 0 0 0 0 0 1.5298 1.5298 0 0. 9.
 -11 -1 0 0 0 0 0 0 -4.99946 4.99946 0 0. 9.
 15 1 1 2 0 0 1.05697 -1.37027 -0.291169 2.49746 1.7768 0. -1
 -15 1 1 2 0 0 -1.05697 1.37027 -3.17849 4.03179 1.7768 0. 1
</event>
<event>
 4 80 1 -1 -1 -1
 11 -1 0 0 0 0 0 0 4.99999 4.99999 0 0. 9.
 -11 -1 0 0 0 0 0 0 -4.99999 4.99999 0 0. 9.
 15 1 1 2 0 0 3.08046 0.235099 -3.5068 4.99999 1.7768 0. 1
 -15 1 1 2 0 0 -3.08046 -0.235099 3.5068 4.99999 1.7768 0. -1
</event>
<event>
 4 80 1 -1 -1 -1
 11 -1 0 0 0 0 0 0 4.99788 4.99788 0 0. 9.
 -11 -1 0 0 0 0 0 0 -5 5 0 0. 9.
 15 1 1 2 0 0 1.35992 -3.96963 -2.05639 4.99938 1.7768 0. 1
 -15 1 1 2 0 0 -1.35992 3.96963 2.05427 4.9985 1.7768 0. -1
</event>
<event>
 4 80 1 -1 -1 -1
 11 -1 0 0 0 0 0 0 5 5 0 0. 9.
 -11 -1 0 0 0 0 0 0 -4.9967 4.9967 0 0. 9.
 15 1 1 2 0 0 -4.10755 -2.2198 0.163798 4.9984 1.7768 0. -1
 -15 1 1 2 0 0 4.10755 2.2198 -0.160496 4.9983 1.7768 0. 1
</event>
<event>
 4 80 1 -1 -1 -1
 11 -1 0 0 0 0 0 0 3.64308 3.64308 0 0. 9.
 -11 -1 0 0 0 0 0 0 -5 5 0 0. 9.
 15 1 1 2 0 0 -1.51261 -3.06017 -2.54691 4.61488 1.7768 0. -1
 -15 1 1 2 0 0 1.51261 3.06017 1.19 4.0282 1.7768 0. 1
</event>
<event>
 4 80 1 -1 -1 -1
 11 -1 0 0 0 0 0 0 5 5 0 0. 9.
 -11 -1 0 0 0 0 0 0 -4.52387 4.52387 0 0. 9.
 15 1 1 2 0 0 0.0342435 0.537085 4.62213 4.98111 1.7768 0. -1
 -15 1 1 2 0 0 -0.0342435 -0.537085 -4.146 4.54276 1.7768 0. 1
</event>
<event>
 4 80 1 -1 -1 -1
 11 -1 0 0 0 0 0 0 5 5 0 0. 9.
 -11 -1 0 0 0 0 0 0 -4.86983 4.86983 0 0. 9.
 15 1 1 2 0 0 0.984364 -2.44457 3.83987 4.9847 1.7768 0. 1
 -15 1 1 2 0 0 -0.984364 2.44457 -3.70971 4.88513 1.7768 0. -1
</event>
<event>
 4 80 1 -1 -1 -1
 11 -1 0 0 0 0 0 0 5 5 0 0. 9.
 -11 -1 0 0 0 0 0 0 -4.99951 4.99951 0 0. 9.
 15 1 1 2 0 0 -3.56365 -3.01594 0.21077 4.99977 1.7768 0. 1
 -15 1 1 2 0 0 3.56365 3.01594 -0.210279 4.99974 1.7768 0. -1
</event>
<event>
 4 80 1 -1 -1 -1
 11 -1 0 0 0 0 0 0 4.99985 4.99985 0 0. 9.
 -11 -1 0 0 0 0 0 0 -5 5 0 0. 9.
 15 1 1 2 0 0 3.24565 2.61075 2.11919 4.99989 1.7768 0. -1
 -15 1 1 2 0 0 -3.24565 -2.61075 -2.11934 4.99996 1.7768 0. 1
</event>
<event>
 4 80 1 -1 -1 -1
 11 -1 0 0 0 0 0 0 1.4068 1.4068 0 0. 9.
 -11 -1 0 0 0 0 0 0 -5 5 0 0. 9.
 15 1 1 2 0 0 0.225145 -0.417519 0.511384 1.90899 1.7768 0. -1
 -15 1 1 2 0 0 -0.225145 0.417519 -4.10458 4.49781 1.7768 0. 1
</event>
<event>
 4 80 1 -1 -1 -1
 11 -1 0 0 0 0 0 0 4.99856 4.99856 0 0. 9.
 -11 -1 0 0 0 0 0 0 -4.99906 4.99906 0 0. 9.
 15 1 1 2 0 0 0.233821 -1.39614 4.45244 4.99858 1.7768 0. 1
 -15 1 1 2 0 0 -0.233821 1.39614 -4.45295 4.99903 1.7768 0. -1
</event>
<event>
 4 80 1 -1 -1 -1
 11 -1 0 0 0 0 0 0 4.98303 4.98303 0 0. 9.
 -11 -1 0 0 0 0 0 0 -4.85595 4.85595 0 0. 9.
 15 1 1 2 0 0 -1.60853 -4.26058 -0.483985 4.91242 1.7768 0. 1
 -15 1 1 2 0 0 1.60853 4.26058 0.611061 4.92656 1.7768 0. -1
</event>
<event>
 4 80 1 -1 -1 -1
 11 -1 0 0 0 0 0 0 4.53679 4.53679 0 0. 9.
 -11 -1 0 0 0 0 0 0 -5 5 0 0. 9.
 15 1 1 2 0 0 -0.0403663 -0.981821 -4.5449 4.9779 1.7768 0. -1
 -15 1 1 2 0 0 0.0403663 0.981821 4.08169 4.55889 1.7768 0. 1
</event>
<event>
 4 80 1 -1 -1 -1
 11 -1 0 0 0 0 0 0 5 5 0 0. 9.
 -11 -1 0 0 0 0 0 0 -4.99928 4.99928 0 0. 9.
 15 1 1 2 0 0 -0.441238 4.62406 0.512246 4.99968 1.7768 0. 1
 -15 1 1 2 0 0 0.441238 -4.62406 -0.511523 4.9996 1.7768 0. -1
</event>
<event>
 4 80 1 -1 -1 -1
 11 -1 0 0 0 0 0 0 4.9538 4.9538 0 0. 9.
 -11 -1 0 0 0 0 0 0 -4.99991 4.99991 0 0. 9.
 15 1 1 2 0 0 -0.618657 3.18645 -3.35094 4.99227 1.7768 0. 1
 -15 1 1 2 0 0 0.618657 -3.18645 3.30484 4.96144 1.7768 0. -1
</event>
<event>
 4 80 1 -1 -1 -1
 11 -1 0 0 0 0 0 0 5 5 0 0. 9.
 -11 -1 0 0 0 0 0 0 -4.99974 4.99974 0 0. 9.
 15 1 1 2 0 0 -3.64024 -1.3359 -2.60852 4.9998 1.7768 0. 1
 -15 1 1 2 0 0 3.64024 1.3359 2.60877 4.99994 1.7768 0. -1
</event>
<event>
 4 80 1 -1 -1 -1
 11 -1 0 0 0 0 0 0 3.94889 3.94889 0 0. 9.
 -11 -1 0 0 0 0 0 0 -4.98935 4.98935 0 0. 9.
 15 1 1 2 0 0 1.01203 -2.50361 -3.58283 4.82562 1.7768 0. 1
 -15 1 1 2 0 0 -1.01203 2.50361 2.54237 4.11261 1.7768 0. -1
</event>
<event>
 4 80 1 -1 -1 -1
 11 -1 0 0 0 0 0 0 5 5 0 0. 9.
 -11 -1 0 0 0 0 0 0 -5 5 0 0. 9.
 15 1 1 2 0 0 4.39548 -1.5542 -0.326291 5 1.7768 0. 1
 -15 1 1 2 0 0 -4.39548 1.5542 0.326291 5 1.7768 0. -1
</event>
<event>
 4 80 1 -1 -1 -1
 11 -1 0 0 0 0 0 0 4.99745 4.99745 0 0. 9.
 -11 -1 0 0 0 0 0 0 -3.22233 3.22233 0 0. 9.
 15 1 1 2 0 0 2.05169 2.90921 1.42245 4.2254 1.7768 0. 1
 -15 1 1 2 0 0 -2.05169 -2.90921 0.352667 3.99438 1.7768 0. -1
</event>
<event>
 4 80 1 -1 -1 -1
 11 -1 0 0 0 0 0 0 5 5 0 0. 9.
 -11 -1 0 0 0 0 0 0 -4.90537 4.90537 0 0. 9.
 15 1 1 2 0 0 3.66116 1.32876 2.5373 4.97647 1.7768 0. -1
 -15 1 1 2 0 0 -3.66116 -1.32876 -2.44267 4.9289 1.7768 0. 1
</event>
<event>
 4 80 1 -1 -1 -1
 11 -1 0 0 0 0 0 0 5 5 0 0. 9.
 -11 -1 0 0 0 0 0 0 -4.99999 4.99999 0 0. 9.
 15 1 1 2 0 0 -0.679594 -3.12117 -3.41155 4.99999 1.7768 0. -1
 -15 1 1 2 0 0 0.679594 3.12117 3.41156 5 1.7768 0. 1
</event>
<event>
 4 80 1 -1 -1 -1
 11 -1 0 0 0 0 0 0 5 5 0 0. 9.
 -11 -1 0 0 0 0 0 0 -0.867395 0.867395 0 0. 9.
 15 1 1 2 0 0 -0.617276 0.119911 0.819106 2.05525 1.7768 0. 1
 -15 1 1 2 0 0 0.617276 -0.119911 3.3135 3.81214 1.7768 0. -1
</event>
<event>
 4 80 1 -1 -1 -1
 11 -1 0 0 0 0 0 0 5 5 0 0. 9.
 -11 -1 0 0 0 0 0 0 -5 5 0 0. 9.
 15 1 1 2 0 0 1.23319 0.890691 4.41907 5 1.7768 0. 1
 -15 1 1 2 0 0 -1.23319 -0.890691 -4.41907 5 1.7768 0. -1
</event>
<event>
 4 80 1 -1 -1 -1
 11 -1 0 0 0 0 0 0 2.56188 2.56188 0 0. 9.
 -11 -1 0 0 0 0 0 0 -5 5 0 0. 9.
 15 1 1 2 0 0 -1.96408 -2.0422 -2.56511 4.21494 1.7768 0. 1
 -15 1 1 2 0 0 1.96408 2.0422 0.12699 3.34695 1.7768 0. -1
</event>
<event>
 4 80 1 -1 -1 -1
 11 -1 0 0 0 0 0 0 5 5 0 0. 9.
 -11 -1 0 0 0 0 0 0 -5 5 0 0. 9.
 15 1 1 2 0 0 0.637525 -2.52784 -3.8789 5 1.7768 0. 1
 -15 1 1 2 0 0 -0.637525 2.52784 3.8789 5 1.7768 0. -1
</event>
<event>
 4 80 1 -1 -1 -1
 11 -1 0 0 0 0 0 0 5 5 0 0. 9.
 -11 -1 0 0 0 0 0 0 -5 5 0 0. 9.
 15 1 1 2 0 0 -0.285555 -2.39117 -4.00538 5 1.7768 0. 1
 -15 1 1 2 0 0 0.285555 2.39117 4.00537 5 1.7768 0. -1
</event>
<event>
 4 80 1 -1 -1 -1
 11 -1 0 0 0 0 0 0 4.98991 4.98991 0 0. 9.
 -11 -1 0 0 0 0 0 0 -4.88924 4.88924 0 0. 9.
 15 1 1 2 0 0 0.311611 -1.89259 -4.14036 4.89687 1.7768 0. -1
 -15 1 1 2 0 0 -0.311611 1.89259 4.24103 4.98228 1.7768 0. 1
</event>
<event>
 4 80 1 -1 -1 -1
 11 -1 0 0 0 0 0 0 5 5 0 0. 9.
 -11 -1 0 0 0 0 0 0 -4.95902 4.95902 0 0. 9.
 15 1 1 2 0 0 -2.34623 -3.97802 -0.534441 4.97723 1.7768 0. -1
 -15 1 1 2 0 0 2.34623 3.97802 0.575417 4.9818 1.7768 0. 1
</event>
<event>
 4 80 1 -1 -1 -1
 11 -1 0 0 0 0 0 0 4.9607 4.9607 0 0. 9.
 -11 -1 0 0 0 0 0 0 -5 5 0 0. 9.
 15 1 1 2 0 0 -3.09983 -1.53408 -3.13149 4.99263 1.7768 0. 1
 -15 1 1 2 0 0 3.09983 1.53408 3.0922 4.96807 1.7768 0. -1
</event>
<event>
 4 80 1 -1 -1 -1
 11 -1 0 0 0 0 0 0 5 5 0 0. 9.
 -11 -1 0 0 0 0 0 0 -4.99586 4.99586 0 0. 9.
 15 1 1 2 0 0 1.19836 -3.03287 3.3468 4.99931 1.7768 0. -1
 -15 1 1 2 0 0 -1.19836 3.03287 -3.34266 4.99654 1.7768 0. 1
</event>
<event>
 4 80 1 -1 -1 -1
 11 -1 0 0 0 0 0 0 5 5 0 0. 9.
 -11 -1 0 0 0 0 0 0 -4.99994 4.99994 0 0. 9.
 15 1 1 2 0 0 0.230351 -4.31995 1.76835 4.99998 1.7768 0. -1
 -15 1 1 2 0 0 -0.230351 4.31995 -1.76829 4.99996 1.7768 0. 1
</event>
<event>
 4 80 1 -1 -1 -1
 11 -1 0 0 0 0 0 0 5 5 0 0. 9.
 -11 -1 0 0 0 0 0 0 -5 5 0 0. 9.
 15 1 1 2 0 0 3.99829 1.3275 -2.02328 5 1.7768 0. 1
 -15 1 1 2 0 0 -3.99829 -1.3275 2.02328 5 1.7768 0. -1
</event>
<event>
 4 80 1 -1 -1 -1
 11 -1 0 0 0 0 0 0 4.94567 4.94567 0 0. 9.
 -11 -1 0 0 0 0 0 0 -4.30081 4.30081 0 0. 9.
 15 1 1 2 0 0 -1.13242 -1.86926 3.98322 4.87855 1.7768 0. 1
 -15 1 1 2 0 0 1.13242 1.86926 -3.33835 4.36793 1.7768 0. -1
</event>
<event>
 4 80 1 -1 -1 -1
 11 -1 0 0 0 0 0 0 4.99887 4.99887 0 0. 9.
 -11 -1 0 0 0 0 0 0 -5 5 0 0. 9.
 15 1 1 2 0 0 -4.03895 1.74692 1.57163 4.99926 1.7768 0. 1
 -15 1 1 2 0 0 4.03895 -1.74692 -1.57276 4.99961 1.7768 0. -1
</event>
<event>
 4 80 1 -1 -1 -1
 11 -1 0 0 0 0 0 0 5 5 0 0. 9.
 -11 -1 0 0 0 0 0 0 -5 5 0 0. 9.
 15 1 1 2 0 0 -1.12709 4.39558 -1.1184 5 1.7768 0. 1
 -15 1 1 2 0 0 1.12709 -4.39558 1.1184 5 1.7768 0. -1
</event>
<event>
 4 80 1 -1 -1 -1
 11 -1 0 0 0 0 0 0 4.99999 4.99999 0 0. 9.
 -11 -1 0 0 0 0 0 0 -5 5 0 0. 9.
 15 1 1 2 0 0 -0.47937 -4.62628 -0.458166 4.99999 1.7768 0. 1
 -15 1 1 2 0 0 0.47937 4.62628 0.458155 4.99999 1.7768 0. -1
</event>
<event>
 4 80 1 -1 -1 -1
 11 -1 0 0 0 0 0 0 1.92459 1.92459 0 0. 9.
 -11 -1 0 0 0 0 0 0 -4.99999 4.99999 0 0. 9.
 15 1 1 2 0 0 2.35308 -0.0090224 -0.462458 2.98474 1.7768 0. 1
 -15 1 1 2 0 0 -2.35308 0.0090224 -2.61295 3.93983 1.7768 0. -1
</event>
<event>
 4 80 1 -1 -1 -1
 11 -1 0 0 0 0 0 0 5 5 0 0. 9.
 -11 -1 0 0 0 0 0 0 -5 5 0 0. 9.
 15 1 1 2 0 0 4.05144 -1.78937 -1.49206 5 1.7768 0. 1
 -15 1 1 2 0 0 -4.05144 1.78937 1.49206 5 1.7768 0. -1
</event>
<event>
 4 80 1 -1 -1 -1
 11 -1 0 0 0 0 0 0 3.79519 3.79519 0 0. 9.
 -11 -1 0 0 0 0 0 0 -5 5 0 0. 9.
 15 1 1 2 0 0 -0.621598 3.91016 -0.221357 4.3454 1.7768 0. -1
 -15 1 1 2 0 0 0.621598 -3.91016 -0.983452 4.44979 1.7768 0. 1
</event>
<event>
 4 80 1 -1 -1 -1
 11 -1 0 0 0 0 0 0 4.71125 4.71125 0 0. 9.
 -11 -1 0 0 0 0 0 0 -4.58624 4.58624 0 0. 9.
 15 1 1 2 0 0 -1.97535 -3.30403 1.96807 4.67436 1.7768 0. -1
 -15 1 1 2 0 0 1.97535 3.30403 -1.84306 4.62312 1.7768 0. 1
</event>
<event>
 4 80 1 -1 -1 -1
 11 -1 0 0 0 0 0 0 2.30424 2.30424 0 0. 9.
 -11 -1 0 0 0 0 0 0 -5 5 0 0. 9.
 15 1 1 2 0 0 1.90145 -0.361487 0.96412 2.79883 1.7768 0. -1
 -15 1 1 2 0 0 -1.90145 0.361487 -3.65988 4.5054 1.7768 0. 1
</event>
<event>
 4 80 1 -1 -1 -1
 11 -1 0 0 0 0 0 0 5 5 0 0. 9.
 -11 -1 0 0 0 0 0 0 -5 5 0 0. 9.
 15 1 1 2 0 0 1.90536 1.72578 3.90302 5 1.7768 0. 1
 -15 1 1 2 0 0 -1.90536 -1.72578 -3.90302 5 1.7768 0. -1
</event>
<event>
 4 80 1 -1 -1 -1
 11 -1 0 0 0 0 0 0 4.99876 4.99876 0 0. 9.
 -11 -1 0 0 0 0 0 0 -4.99871 4.99871 0 0. 9.
 15 1 1 2 0 0 -4.32228 -1.61624 -0.731583 4.99873 1.7768 0. -1
 -15 1 1 2 0 0 4.32228 1.61624 0.731625 4.99874 1.7768 0. 1
</event>
<event>
 4 80 1 -1 -1 -1
 11 -1 0 0 0 0 0 0 4.0966 4.0966 0 0. 9.
 -11 -1 0 0 0 0 0 0 -4.98631 4.98631 0 0. 9.
 15 1 1 2 0 0 -3.61066 -1.18598 1.24426 4.376 1.7768 0. -1
 -15 1 1 2 0 0 3.61066 1.18598 -2.13397 4.70691 1.7768 0. 1
</event>
<event>
 4 80 1 -1 -1 -1
 11 -1 0 0 0 0 0 0 4.99998 4.99998 0 0. 9.
 -11 -1 0 0 0 0 0 0 -4.99059 4.99059 0 0. 9.
 15 1 1 2 0 0 3.44848 -0.650849 3.08357 4.99818 1.7768 0. -1
 -15 1 1 2 0 0 -3.44848 0.650849 -3.07419 4.99239 1.7768 0. 1
</event>
<event>
 4 80 1 -1 -1 -1
 11 -1 0 0 0 0 0 0 5 5 0 0. 9.
 -11 -1 0 0 0 0 0 0 -5 5 0 0. 9.
 15 1 1 2 0 0 4.02734 -0.850133 -2.21362 5 1.7768 0. 1
 -15 1 1 2 0 0 -4.02734 0.850133 2.21362 5 1.7768 0. -1
</event>
<event>
 4 80 1 -1 -1 -1
 11 -1 0 0 0 0 0 0 4.99998 4.99998 0 0. 9.
 -11 -1 0 0 0 0 0 0 -5 5 0 0. 9.
 15 1 1 2 0 0 0.277807 -4.14737 -2.13644 4.99999 1.7768 0. 1
 -15 1 1 2 0 0 -0.277807 4.14737 2.13642 4.99999 1.7768 0. -1
</event>
<event>
 4 80 1 -1 -1 -1
 11 -1 0 0 0 0 0 0 5 5 0 0. 9.
 -11 -1 0 0 0 0 0 0 -4.99999 4.99999 0 0. 9.
 15 1 1 2 0 0 4.10196 -1.16466 -1.91303 5 1.7768 0. 1
 -15 1 1 2 0 0 -4.10196 1.16466 1.91303 5 1.7768 0. -1
</event>
<event>
 4 80 1 -1 -1 -1
 11 -1 0 0 0 0 0 0 5 5 0 0. 9.
 -11 -1 0 0 0 0 0 0 -4.98625 4.98625 0 0. 9.
 15 1 1 2 0 0 -1.95946 -3.57437 -2.26425 4.99 1.7768 0. 1
 -15 1 1 2 0 0 1.95946 3.57437 2.27799 4.99625 1.7768 0. -1
</event>
<event>
 4 80 1 -1 -1 -1
 11 -1 0 0 0 0 0 0 5 5 0 0. 9.
 -11 -1 0 0 0 0 0 0 -5 5 0 0. 9.
 15 1 1 2 0 0 2.72746 -2.76084 -2.60403 5 1.7768 0. 1
 -15 1 1 2 0 0 -2.72746 2.76084 2.60403 5 1.7768 0. -1
</event>
<event>
 4 80 1 -1 -1 -1
 11 -1 0 0 0 0 0 0 4.91856 4.91856 0 0. 9.
 -11 -1 0 0 0 0 0 0 -4.9983 4.9983 0 0. 9.
 15 1 1 2 0 0 1.69283 -0.478439 4.24187 4.924 1.7768 0. -1
 -15 1 1 2 0 0 -1.69283 0.478439 -4.32161 4.99286 1.7768 0. 1
</event>
<event>
 4 80 1 -1 -1 -1
 11 -1 0 0 0 0 0 0 5 5 0 0. 9.
 -11 -1 0 0 0 0 0 0 -5 5 0 0. 9.
 15 1 1 2 0 0 -3.69018 0.209012 -2.86027 5 1.7768 0. -1
 -15 1 1 2 0 0 3.69018 -0.209012 2.86027 5 1.7768 0. 1
</event>
<event>
 4 80 1 -1 -1 -1
 11 -1 0 0 0 0 0 0 2.77318 2.77318 0 0. 9.
 -11 -1 0 0 0 0 0 0 -4.17674 4.17674 0 0. 9.
 15 1 1 2 0 0 -1.19168 1.59646 1.45364 3.03967 1.7768 0. -1
 -15 1 1 2 0 0 1.19168 -1.59646 -2.8572 3.91026 1.7768 0. 1
</event>
<event>
 4 80 1 -1 -1 -1
 11 -1 0 0 0 0 0 0 1.45899 1.45899 0 0. 9.
 -11 -1 0 0 0 0 0 0 -5 5 0 0. 9.
 15 1 1 2 0 0 -0.0320178 1.11069 0.266604 2.11269 1.7768 0. 1
 -15 1 1 2 0 0 0.0320178 -1.11069 -3.80761 4.3463 1.7768 0. -1
</event>
<event>
 4 80 1 -1 -1 -1
 11 -1 0 0 0 0 0 0 5 5 0 0. 9.
 -11 -1 0 0 0 0 0 0 -4.99953 4.99953 0 0. 9.
 15 1 1 2 0 0 2.68972 2.43296 -2.94697 4.99963 1.7768 0. -1
 -15 1 1 2 0 0 -2.68972 -2.43296 2.94744 4.9999 1.7768 0. 1
</event>
<event>
 4 80 1 -1 -1 -1
 11 -1 0 0 0 0 0 0 4.75018 4.75018 0 0. 9.
 -11 -1 0 0 0 0 0 0 -4.90394 4.90394 0 0. 9.
 15 1 1 2 0 0 -1.6878 3.0791 -2.8714 4.87157 1.7768 0. -1
 -15 1 1 2 0 0 1.6878 -3.0791 2.71764 4.78255 1.7768 0. 1
</event>
<event>
 4 80 1 -1 -1 -1
 11 -1 0 0 0 0 0 0 5 5 0 0. 9.
 -11 -1 0 0 0 0 0 0 -5 5 0 0. 9.
 15 1 1 2 0 0 -2.44806 0.560879 -3.9414 5 1.7768 0. 1
 -15 1 1 2 0 0 2.44806 -0.560879 3.9414 5 1.7768 0. -1
</event>
<event>
 4 80 1 -1 -1 -1
 11 -1 0 0 0 0 0 0 5 5 0 0. 9.
 -11 -1 0 0 0 0 0 0 -2.26835 2.26835 0 0. 9.
 15 1 1 2 0 0 1.58237 -2.38285 1.41641 3.65319 1.7768 0. -1
 -15 1 1 2 0 0 -1.58237 2.38285 1.31524 3.61517 1.7768 0. 1
</event>
<event>
 4 80 1 -1 -1 -1
 11 -1 0 0 0 0 0 0 5 5 0 0. 9.
 -11 -1 0 0 0 0 0 0 -5 5 0 0. 9.
 15 1 1 2 0 0 -1.7492 0.806498 -4.25818 5 1.7768 0. 1
 -15 1 1 2 0 0 1.7492 -0.806498 4.25818 5 1.7768 0. -1
</event>
<event>
 4 80 1 -1 -1 -1
 11 -1 0 0 0 0 0 0 4.98769 4.98769 0 0. 9.
 -11 -1 0 0 0 0 0 0 -5 5 0 0. 9.
 15 1 1 2 0 0 -1.03054 3.26569 3.16465 4.98994 1.7768 0. -1
 -15 1 1 2 0 0 1.03054 -3.26569 -3.17696 4.99775 1.7768 0. 1
</event>
<event>
 4 80 1 -1 -1 -1
 11 -1 0 0 0 0 0 0 4.99997 4.99997 0 0. 9.
 -11 -1 0 0 0 0 0 0 -4.99905 4.99905 0 0. 9.
 15 1 1 2 0 0 -0.426992 -3.86387 -2.5929 4.99927 1.7768 0. 1
 -15 1 1 2 0 0 0.426992 3.86387 2.59382 4.99975 1.7768 0. -1
</event>
<event>
 4 80 1 -1 -1 -1
 11 -1 0 0 0 0 0 0 5 5 0 0. 9.
 -11 -1 0 0 0 0 0 0 -4.85456 4.85456 0 0. 9.
 15 1 1 2 0 0 -3.39228 2.6161 1.7353 4.95182 1.7768 0. 1
 -15 1 1 2 0 0 3.39228 -2.6161 -1.58986 4.90274 1.7768 0. -1
</event>
<event>
 4 80 1 -1 -1 -1
 11 -1 0 0 0 0 0 0 5 5 0 0. 9.
 -11 -1 0 0 0 0 0 0 -5 5 0 0. 9.
 15 1 1 2 0 0 0.066408 4.01271 2.39499 5 1.7768 0. 1
 -15 1 1 2 0 0 -0.066408 -4.01271 -2.39499 5 1.7768 0. -1
</event>
<event>
 4 80 1 -1 -1 -1
 11 -1 0 0 0 0 0 0 5 5 0 0. 9.
 -11 -1 0 0 0 0 0 0 -5 5 0 0. 9.
 15 1 1 2 0 0 1.91543 -3.75417 -2.0198 5 1.7768 0. 1
 -15 1 1 2 0 0 -1.91543 3.75417 2.0198 5 1.7768 0. -1
</event>
<event>
 4 80 1 -1 -1 -1
 11 -1 0 0 0 0 0 0 5 5 0 0. 9.
 -11 -1 0 0 0 0 0 0 -4.98163 4.98163 0 0. 9.
 15 1 1 2 0 0 -1.19404 -3.92826 -2.20292 4.98674 1.7768 0. 1
 -15 1 1 2 0 0 1.19404 3.92826 2.2213 4.99489 1.7768 0. -1
</event>
<event>
 4 80 1 -1 -1 -1
 11 -1 0 0 0 0 0 0 4.13299 4.13299 0 0. 9.
 -11 -1 0 0 0 0 0 0 -1.7146 1.7146 0 0. 9.
 15 1 1 2 0 0 1.2833 -0.534425 -0.342615 2.28201 1.7768 0. 1
 -15 1 1 2 0 0 -1.2833 0.534425 2.76101 3.56558 1.7768 0. -1
</event>
<event>
 4 80 1 -1 -1 -1
 11 -1 0 0 0 0 0 0 4.9969 4.9969 0 0. 9.
 -11 -1 0 0 0 0 0 0 -5 5 0 0. 9.
 15 1 1 2 0 0 3.99919 2.30084 0.732881 4.99822 1.7768 0. 1
 -15 1 1 2 0 0 -3.99919 -2.30084 -0.735985 4.99868 1.7768 0. -1
</event>
<event>
 4 80 1 -1 -1 -1
 11 -1 0 0 0 0 0 0 4.99994 4.99994 0 0. 9.
 -11 -1 0 0 0 0 0 0 -5 5 0 0. 9.
 15 1 1 2 0 0 -1.68562 -1.52282 -4.08435 4.99999 1.7768 0. -1
 -15 1 1 2 0 0 1.68562 1.52282 4.08429 4.99994 1.7768 0. 1
</event>
<event>
 4 80 1 -1 -1 -1
 11 -1 0 0 0 0 0 0 4.99487 4.99487 0 0. 9.
 -11 -1 0 0 0 0 0 0 -5 5 0 0. 9.
 15 1 1 2 0 0 -1.3181 0.851373 -4.40193 4.99969 1.7768 0. -1
 -15 1 1 2 0 0 1.3181 -0.851373 4.3968 4.99517 1.7768 0. 1
</event>
<event>
 4 80 1 -1 -1 -1
 11 -1 0 0 0 0 0 0 4.49146 4.49146 0 0. 9.
 -11 -1 0 0 0 0 0 0 -4.97743 4.97743 0 0. 9.
 15 1 1 2 0 0 -1.74146 2.84067 -3.09211 4.88067 1.7768 0. 1
 -15 1 1 2 0 0 1.74146 -2.84067 2.60614 4.58822 1.7768 0. -1
</event>
<event>
 4 80 1 -1 -1 -1
 11 -1 0 0 0 0 0 0 4.91999 4.91999 0 0. 9.
 -11 -1 0 0 0 0 0 0 -4.99639 4.99639 0 0. 9.
 15 1 1 2 0 0 -2.1051 -0.115732 4.08255 4.92644 1.7768 0. 1
 -15 1 1 2 0 0 2.1051 0.115732 -4.15896 4.98994 1.7768 0. -1
</event>
<event>
 4 80 1 -1 -1 -1
 11 -1 0 0 0 0 0 0 4.99999 4.99999 0 0. 9.
 -11 -1 0 0 0 0 0 0 -4.92022 4.92022 0 0. 9.
 15 1 1 2 0 0 -1.45454 3.63285 -2.43609 4.94019 1.7768 0. -1
 -15 1 1 2 0 0 1.45454 -3.63285 2.51586 4.98001 1.7768 0. 1
</event>
<event>
 4 80 1 -1 -1 -1
 11 -1 0 0 0 0 0 0 4.99767 4.99767 0 0. 9.
 -11 -1 0 0 0 0 0 0 -5 5 0 0. 9.
 15 1 1 2 0 0 4.57693 0.908778 -0.238792 4.99889 1.7768 0. -1
 -15 1 1 2 0 0 -4.57693 -0.908778 0.236458 4.99878 1.7768 0. 1
</event>
<event>
 4 80 1 -1 -1 -1
 11 -1 0 0 0 0 0 0 4.57768 4.57768 0 0. 9.
 -11 -1 0 0 0 0 0 0 -5 5 0 0. 9.
 15 1 1 2 0 0 -1.64136 4.10827 0.187574 4.77126 1.7768 0. -1
 -15 1 1 2 0 0 1.64136 -4.10827 -0.609886 4.80642 1.7768 0. 1
</event>
<event>
 4 80 1 -1 -1 -1
 11 -1 0 0 0 0 0 0 4.93387 4.93387 0 0. 9.
 -11 -1 0 0 0 0 0 0 -4.93191 4.93191 0 0. 9.
 15 1 1 2 0 0 4.55234 0.530892 0.41327 4.93297 1.7768 0. 1
 -15 1 1 2 0 0 -4.55234 -0.530892 -0.411307 4.93281 1.7768 0. -1
</event>
<event>
 4 80 1 -1 -1 -1
 11 -1 0 0 0 0 0 0 4.99559 4.99559 0 0. 9.
 -11 -1 0 0 0 0 0 0 -4.99788 4.99788 0 0. 9.
 15 1 1 2 0 0 4.33006 0.282655 -1.7275 4.99713 1.7768 0. -1
 -15 1 1 2 0 0 -4.33006 -0.282655 1.72521 4.99634 1.7768 0. 1
</event>
<event>
 4 80 1 -1 -1 -1
 11 -1 0 0 0 0 0 0 4.99999 4.99999 0 0. 9.
 -11 -1 0 0 0 0 0 0 -4.99983 4.99983 0 0. 9.
 15 1 1 2 0 0 0.0393094 -2.72333 -3.79772 4.99985 1.7768 0. -1
 -15 1 1 2 0 0 -0.0393094 2.72333 3.79788 4.99997 1.7768 0. 1
</event>
<event>
 4 80 1 -1 -1 -1
 11 -1 0 0 0 0 0 0 4.74633 4.74633 0 0. 9.
 -11 -1 0 0 0 0 0 0 -4.99996 4.99996 0 0. 9.
 15 1 1 2 0 0 4.47226 -0.755642 -0.166559 4.87418 1.7768 0. 1
 -15 1 1 2 0 0 -4.47226 0.755642 -0.0870764 4.87211 1.7768 0. -1
</event>
<event>
 4 80 1 -1 -1 -1
 11 -1 0 0 0 0 0 0 5 5 0 0. 9.
 -11 -1 0 0 0 0 0 0 -5 5 0 0. 9.
 15 1 1 2 0 0 1.16048 3.59113 -2.75668 5 1.7768 0. 1
 -15 1 1 2 0 0 -1.16048 -3.59113 2.75668 5 1.7768 0. -1
</event>
<event>
 4 80 1 -1 -1 -1
 11 -1 0 0 0 0 0 0 5 5 0 0. 9.
 -11 -1 0 0 0 0 0 0 -4.99099 4.99099 0 0. 9.
 15 1 1 2 0 0 2.01577 4.20293 0.267728 4.99573 1.7768 0. -1
 -15 1 1 2 0 0 -2.01577 -4.20293 -0.258721 4.99526 1.7768 0. 1
</event>
<event>
 4 80 1 -1 -1 -1
 11 -1 0 0 0 0 0 0 5 5 0 0. 9.
 -11 -1 0 0 0 0 0 0 -5 5 0 0. 9.
 15 1 1 2 0 0 2.77235 -0.496414 3.7296 5 1.7768 0. -1
 -15 1 1 2 0 0 -2.77235 0.496414 -3.7296 5 1.7768 0. 1
</event>
<event>
 4 80 1 -1 -1 -1
 11 -1 0 0 0 0 0 0 5 5 0 0. 9.
 -11 -1 0 0 0 0 0 0 -5 5 0 0. 9.
 15 1 1 2 0 0 -0.0441566 -0.468834 4.64979 5 1.7768 0. -1
 -15 1 1 2 0 0 0.0441566 0.468834 -4.64979 5 1.7768 0. 1
</event>
<event>
 4 80 1 -1 -1 -1
 11 -1 0 0 0 0 0 0 2.45993 2.45993 0 0. 9.
 -11 -1 0 0 0 0 0 0 -5 5 0 0. 9.
 15 1 1 2 0 0 -1.78742 -1.75503 -3.07084 4.34313 1.7768 0. -1
 -15 1 1 2 0 0 1.78742 1.75503 0.530778 3.1168 1.7768 0. 1
</event>
<event>
 4 80 1 -1 -1 -1
 11 -1 0 0 0 0 0 0 2.81898 2.81898 0 0. 9.
 -11 -1 0 0 0 0 0 0 -5 5 0 0. 9.
 15 1 1 2 0 0 -1.08325 -1.32677 1.85545 3.08775 1.7768 0. -1
 -15 1 1 2 0 0 1.08325 1.32677 -4.03647 4.73123 1.7768 0. 1
</event>
<event>
 4 80 1 -1 -1 -1
 11 -1 0 0 0 0 0 0 5 5 0 0. 9.
 -11 -1 0 0 0 0 0 0 -5 5 0 0. 9.
 15 1 1 2 0 0 3.77979 -1.23553 -2.45538 5 1.7768 0. -1
 -15 1 1 2 0 0 -3.77979 1.23553 2.45538 5 1.7768 0. 1
</event>
<event>
 4 80 1 -1 -1 -1
 11 -1 0 0 0 0 0 0 5 5 0 0. 9.
 -11 -1 0 0 0 0 0 0 -4.96915 4.96915 0 0. 9.
 15 1 1 2 0 0 3.00648 2.19984 2.81004 4.99322 1.7768 0. 1
 -15 1 1 2 0 0 -3.00648 -2.19984 -2.77919 4.97593 1.7768 0. -1
</event>
<event>
 4 80 1 -1 -1 -1
 11 -1 0 0 0 0 0 0 4.96223 4.96223 0 0. 9.
 -11 -1 0 0 0 0 0 0 -5 5 0 0. 9.
 15 1 1 2 0 0 2.697 -0.437891 3.74783 4.96684 1.7768 0. -1
 -15 1 1 2 0 0 -2.697 0.437891 -3.78559 4.9954 1.7768 0. 1
</event>
<event>
 4 80 1 -1 -1 -1
 11 -1 0 0 0 0 0 0 5 5 0 0. 9.
 -11 -1 0 0 0 0 0 0 -5 5 0 0. 9.
 15 1 1 2 0 0 -1.62075 1.09254 -4.24521 5 1.7768 0. -1
 -15 1 1 2 0 0 1.62075 -1.09254 4.24521 5 1.7768 0. 1
</event>
<event>
 4 80 1 -1 -1 -1
 11 -1 0 0 0 0 0 0 4.99999 4.99999 0 0. 9.
 -11 -1 0 0 0 0 0 0 -4.99994 4.99994 0 0. 9.
 15 1 1 2 0 0 1.01166 -4.01399 -2.16938 4.99995 1.7768 0. -1
 -15 1 1 2 0 0 -1.01166 4.01399 2.16943 4.99997 1.7768 0. 1
</event>
<event>
 4 80 1 -1 -1 -1
 11 -1 0 0 0 0 0 0 4.99998 4.99998 0 0. 9.
 -11 -1 0 0 0 0 0 0 -4.53529 4.53529 0 0. 9.
 15 1 1 2 0 0 1.25424 0.479218 -3.98168 4.56227 1.7768 0. -1
 -15 1 1 2 0 0 -1.25424 -0.479218 4.44637 4.973 1.7768 0. 1
</event>
<event>
 4 80 1 -1 -1 -1
 11 -1 0 0 0 0 0 0 4.99957 4.99957 0 0. 9.
 -11 -1 0 0 0 0 0 0 -4.94083 4.94083 0 0. 9.
 15 1 1 2 0 0 -0.545239 0.201215 -4.57577 4.94299 1.7768 0. -1
 -15 1 1 2 0 0 0.545239 -0.201215 4.6345 4.99741 1.7768 0. 1
</event>
<event>
 4 80 1 -1 -1 -1
 11 -1 0 0 0 0 0 0 4.99486 4.99486 0 0. 9.
 -11 -1 0 0 0 0 0 0 -1.82273 1.82273 0 0. 9.
 15 1 1 2 0 0 -1.01991 0.380838 -0.879072 2.2618 1.7768 0. -1
 -15 1 1 2 0 0 1.01991 -0.380838 4.05121 4.55579 1.7768 0. 1
</event>
<event>
 4 80 1 -1 -1 -1
 11 -1 0 0 0 0 0 0 4.99995 4.99995 0 0. 9.
 -11 -1 0 0 0 0 0 0 -5 5 0 0. 9.
 15 1 1 2 0 0 -2.15616 -4.05823 0.850738 4.99997 1.7768 0. -1
 -15 1 1 2 0 0 2.15616 4.05823 -0.850791 4.99998 1.7768 0. 1
</event>
<event>
 4 80 1 -1 -1 -1
 11 -1 0 0 0 0 0 0 5 5 0 0. 9.
 -11 -1 0 0 0 0 0 0 -4.59324 4.59324 0 0. 9.
 15 1 1 2 0 0 -1.69343 -4.06547 0.846392 4.82388 1.7768 0. 1
 -15 1 1 2 0 0 1.69343 4.06547 -0.439632 4.76936 1.7768 0. -1
</event>
<event>
 4 80 1 -1 -1 -1
 11 -1 0 0 0 0 0 0 5 5 0 0. 9.
 -11 -1 0 0 0 0 0 0 -4.64456 4.64456 0 0. 9.
 15 1 1 2 0 0 -2.34218 -0.291372 -3.63201 4.68187 1.7768 0. 1
 -15 1 1 2 0 0 2.34218 0.291372 3.98745 4.96268 1.7768 0. -1
</event>
<event>
 4 80 1 -1 -1 -1
 11 -1 0 0 0 0 0 0 5 5 0 0. 9.
 -11 -1 0 0 0 0 0 0 -5 5 0 0. 9.
 15 1 1 2 0 0 0.938634 4.14368 -1.94709 5 1.7768 0. 1
 -15 1 1 2 0 0 -0.938634 -4.14368 1.94709 5 1.7768 0. -1
</event>
<event>
 4 80 1 -1 -1 -1
 11 -1 0 0 0 0 0 0 5 5 0 0. 9.
 -11 -1 0 0 0 0 0 0 -5 5 0 0. 9.
 15 1 1 2 0 0 1.10081 -0.044829 4.54186 5 1.7768 0. -1
 -15 1 1 2 0 0 -1.10081 0.044829 -4.54186 5 1.7768 0. 1
</event>
<event>
 4 80 1 -1 -1 -1
 11 -1 0 0 0 0 0 0 5 5 0 0. 9.
 -11 -1 0 0 0 0 0 0 -4.90113 4.90113 0 0. 9.
 15 1 1 2 0 0 -0.829978 -0.645176 -4.44999 4.90563 1.7768 0. 1
 -15 1 1 2 0 0 0.829978 0.645176 4.54886 4.99549 1.7768 0. -1
</event>
<event>
 4 80 1 -1 -1 -1
 11 -1 0 0 0 0 0 0 4.99389 4.99389 0 0. 9.
 -11 -1 0 0 0 0 0 0 -5 5 0 0. 9.
 15 1 1 2 0 0 -2.91328 3.62045 0.462634 4.99666 1.7768 0. 1
 -15 1 1 2 0 0 2.91328 -3.62045 -0.46874 4.99723 1.7768 0. -1
</event>
<event>
 4 80 1 -1 -1 -1
 11 -1 0 0 0 0 0 0 5 5 0 0. 9.
 -11 -1 0 0 0 0 0 0 -4.97312 4.97312 0 0. 9.
 15 1 1 2 0 0 -3.1744 3.40338 -0.205657 4.98597 1.7768 0. -1
 -15 1 1 2 0 0 3.1744 -3.40338 0.232538 4.98715 1.7768 0. 1
</event>
<event>
 4 80 1 -1 -1 -1
 11 -1 0 0 0 0 0 0 4.99959 4.99959 0 0. 9.
 -11 -1 0 0 0 0 0 0 -5 5 0 0. 9.
 15 1 1 2 0 0 -2.20053 3.83021 -1.52578 4.99986 1.7768 0. -1
 -15 1 1 2 0 0 2.20053 -3.83021 1.52537 4.99973 1.7768 0. 1
</event>
<event>
 4 80 1 -1 -1 -1
 11 -1 0 0 0 0 0 0 4.92994 4.92994 0 0. 9.
 -11 -1 0 0 0 0 0 0 -2.60545 2.60545 0 0. 9.
 15 1 1 2 0 0 -0.602324 1.00028 4.19523 4.7033 1.7768 0. -1
 -15 1 1 2 0 0 0.602324 -1.00028 -1.87074 2.83209 1.7768 0. 1
</event>
<event>
 4 80 1 -1 -1 -1
 11 -1 0 0 0 0 0 0 5 5 0 0. 9.
 -11 -1 0 0 0 0 0 0 -4.99316 4.99316 0 0. 9.
 15 1 1 2 0 0 4.28487 -0.752867 1.7008 4.99774 1.7768 0. 1
 -15 1 1 2 0 0 -4.28487 0.752867 -1.69396 4.99542 1.7768 0. -1
</event>
<event>
 4 80 1 -1 -1 -1
 11 -1 0 0 0 0 0 0 4.50226 4.50226 0 0. 9.
 -11 -1 0 0 0 0 0 0 -3.49732 3.49732 0 0. 9.
 15 1 1 2 0 0 -3.04733 -0.113781 -1.32557 3.77015 1.7768 0. 1
 -15 1 1 2 0 0 3.04733 0.113781 2.3305 4.22943 1.7768 0. -1
</event>
<event>
 4 80 1 -1 -1 -1
 11 -1 0 0 0 0 0 0 5 5 0 0. 9.
 -11 -1 0 0 0 0 0 0 -5 5 0 0. 9.
 15 1 1 2 0 0 1.81925 -1.62375 3.98698 5 1.7768 0. 1
 -15 1 1 2 0 0 -1.81925 1.62375 -3.98698 5 1.7768 0. -1
</event>
<event>
 4 80 1 -1 -1 -1
 11 -1 0 0 0 0 0 0 5 5 0 0. 9.
 -11 -1 0 0 0 0 0 0 -5 5 0 0. 9.
 15 1 1 2 0 0 -0.406934 -1.30514 4.46915 5 1.7768 0. 1
 -15 1 1 2 0 0 0.406934 1.30514 -4.46915 5 1.7768 0. -1
</event>
<event>
 4 80 1 -1 -1 -1
 11 -1 0 0 0 0 0 0 1.98355 1.98355 0 0. 9.
 -11 -1 0 0 0 0 0 0 -4.9999 4.9999 0 0. 9.
 15 1 1 2 0 0 -0.190793 2.40837 -0.442842 3.03158 1.7768 0. 1
 -15 1 1 2 0 0 0.190793 -2.40837 -2.57351 3.95188 1.7768 0. -1
</event>
<event>
 4 80 1 -1 -1 -1
 11 -1 0 0 0 0 0 0 4.96403 4.96403 0 0. 9.
 -11 -1 0 0 0 0 0 0 -5 5 0 0. 9.
 15 1 1 2 0 0 -2.2606 2.85795 -2.91356 4.99247 1.7768 0. 1
 -15 1 1 2 0 0 2.2606 -2.85795 2.87759 4.97156 1.7768 0. -1
</event>
<event>
 4 80 1 -1 -1 -1
 11 -1 0 0 0 0 0 0 5 5 0 0. 9.
 -11 -1 0 0 0 0 0 0 -5 5 0 0. 9.
 15 1 1 2 0 0 0.210748 0.471543 4.64494 5 1.7768 0. -1
 -15 1 1 2 0 0 -0.210748 -0.471543 -4.64494 5 1.7768 0. 1
</event>
<event>
 4 80 1 -1 -1 -1
 11 -1 0 0 0 0 0 0 5 5 0 0. 9.
 -11 -1 0 0 0 0 0 0 -4.99687 4.99687 0 0. 9.
 15 1 1 2 0 0 -2.70004 -0.336847 3.79932 4.99962 1.7768 0. 1
 -15 1 1 2 0 0 2.70004 0.336847 -3.7962 4.99725 1.7768 0. -1
</event>
<event>
 4 80 1 -1 -1 -1
 11 -1 0 0 0 0 0 0 4.98246 4.98246 0 0. 9.
 -11 -1 0 0 0 0 0 0 -5 5 0 0. 9.
 15 1 1 2 0 0 -1.51168 -4.35319 -0.729292 4.9925 1.7768 0. -1
 -15 1 1 2 0 0 1.51168 4.35319 0.71175 4.98996 1.7768 0. 1
</event>
<event>
 4 80 1 -1 -1 -1
 11 -1 0 0 0 0 0 0 4.99928 4.99928 0 0. 9.
 -11 -1 0 0 0 0 0 0 -4.70566 4.70566 0 0. 9.
 15 1 1 2 0 0 0.297259 -0.259032 -4.351 4.71639 1.7768 0. -1
 -15 1 1 2 0 0 -0.297259 0.259032 4.64461 4.98855 1.7768 0. 1
</event>
<event>
 4 80 1 -1 -1 -1
 11 -1 0 0 0 0 0 0 4.99968 4.99968 0 0. 9.
 -11 -1 0 0 0 0 0 0 -5 5 0 0. 9.
 15 1 1 2 0 0 0.594683 -4.52142 1.02152 4.99981 1.7768 0. -1
 -15 1 1 2 0 0 -0.594683 4.52142 -1.02184 4.99987 1.7768 0. 1
</event>
<event>
 4 80 1 -1 -1 -1
 11 -1 0 0 0 0 0 0 5 5 0 0. 9.
 -11 -1 0 0 0 0 0 0 -5 5 0 0. 9.
 15 1 1 2 0 0 -0.36609 4.12499 2.16627 5 1.7768 0. -1
 -15 1 1 2 0 0 0.36609 -4.12499 -2.16627 5 1.7768 0. 1
</event>
<event>
 4 80 1 -1 -1 -1
 11 -1 0 0 0 0 0 0 2.03384 2.03384 0 0. 9.
 -11 -1 0 0 0 0 0 0 -4.76213 4.76213 0 0. 9.
 15 1 1 2 0 0 -1.54672 1.97982 -0.85709 3.19443 1.7768 0. 1
 -15 1 1 2 0 0 1.54672 -1.97982 -1.8712 3.60155 1.7768 0. -1
</event>
<event>
 4 80 1 -1 -1 -1
 11 -1 0 0 0 0 0 0 4.74363 4.74363 0 0. 9.
 -11 -1 0 0 0 0 0 0 -5 5 0 0. 9.
 15 1 1 2 0 0 2.97684 2.41549 -2.55064 4.93555 1.7768 0. 1
 -15 1 1 2 0 0 -2.97684 -2.41549 2.29427 4.80807 1.7768 0. -1
</event>
<event>
 4 80 1 -1 -1 -1
 11 -1 0 0 0 0 0 0 5 5 0 0. 9.
 -11 -1 0 0 0 0 0 0 -5 5 0 0. 9.
 15 1 1 2 0 0 2.90804 0.801232 3.56982 5 1.7768 0. 1
 -15 1 1 2 0 0 -2.90804 -0.801232 -3.56982 5 1.7768 0. -1
</event>
<event>
 4 80 1 -1 -1 -1
 11 -1 0 0 0 0 0 0 4.99552 4.99552 0 0. 9.
 -11 -1 0 0 0 0 0 0 -4.913 4.913 0 0. 9.
 15 1 1 2 0 0 -4.15451 -2.02758 0.160562 4.95525 1.7768 0. -1
 -15 1 1 2 0 0 4.15451 2.02758 -0.0780368 4.95327 1.7768 0. 1
</event>
<event>
 4 80 1 -1 -1 -1
 11 -1 0 0 0 0 0 0 5 5 0 0. 9.
 -11 -1 0 0 0 0 0 0 -5 5 0 0. 9.
 15 1 1 2 0 0 -0.445381 0.747764 -4.59181 5 1.7768 0. -1
 -15 1 1 2 0 0 0.445381 -0.747764 4.59181 5 1.7768 0. 1
</event>
<event>
 4 80 1 -1 -1 -1
 11 -1 0 0 0 0 0 0 5 5 0 0. 9.
 -11 -1 0 0 0 0 0 0 -5 5 0 0. 9.
 15 1 1 2 0 0 -1.64378 0.0148077 4.37493 5 1.7768 0. -1
 -15 1 1 2 0 0 1.64378 -0.0148077 -4.37493 5 1.7768 0. 1
</event>
<event>
 4 80 1 -1 -1 -1
 11 -1 0 0 0 0 0 0 5 5 0 0. 9.
 -11 -1 0 0 0 0 0 0 -5 5 0 0. 9.
 15 1 1 2 0 0 -4.53024 0.321532 -1.10264 5 1.7768 0. 1
 -15 1 1 2 0 0 4.53024 -0.321532 1.10264 5 1.7768 0. -1
</event>
<event>
 4 80 1 -1 -1 -1
 11 -1 0 0 0 0 0 0 5 5 0 0. 9.
 -11 -1 0 0 0 0 0 0 -5 5 0 0. 9.
 15 1 1 2 0 0 2.60661 1.10018 3.71987 5 1.7768 0. -1
 -15 1 1 2 0 0 -2.60661 -1.10018 -3.71987 5 1.7768 0. 1
</event>
<event>
 4 80 1 -1 -1 -1
 11 -1 0 0 0 0 0 0 4.80234 4.80234 0 0. 9.
 -11 -1 0 0 0 0 0 0 -5 5 0 0. 9.
 15 1 1 2 0 0 0.275077 -2.92764 3.39577 4.83071 1.7768 0. -1
 -15 1 1 2 0 0 -0.275077 2.92764 -3.59343 4.97164 1.7768 0. 1
</event>
<event>
 4 80 1 -1 -1 -1
 11 -1 0 0 0 0 0 0 4.64224 4.64224 0 0. 9.
 -11 -1 0 0 0 0 0 0 -5 5 0 0. 9.
 15 1 1 2 0 0 -0.604154 4.3599 0.646156 4.79051 1.7768 0. 1
 -15 1 1 2 0 0 0.604154 -4.3599 -1.00392 4.85173 1.7768 0. -1
</event>
<event>
 4 80 1 -1 -1 -1
 11 -1 0 0 0 0 0 0 5 5 0 0. 9.
 -11 -1 0 0 0 0 0 0 -5 5 0 0. 9.
 15 1 1 2 0 0 -3.05777 -3.23338 1.42744 5 1.7768 0. -1
 -15 1 1 2 0 0 3.05777 3.23338 -1.42744 5 1.7768 0. 1
</event>
<event>
 4 80 1 -1 -1 -1
 11 -1 0 0 0 0 0 0 5 5 0 0. 9.
 -11 -1 0 0 0 0 0 0 -4.53796 4.53796 0 0. 9.
 15 1 1 2 0 0 2.93389 -1.92974 -2.4555 4.63884 1.7768 0. 1
 -15 1 1 2 0 0 -2.93389 1.92974 2.91754 4.89912 1.7768 0. -1
</event>
<event>
 4 80 1 -1 -1 -1
 11 -1 0 0 0 0 0 0 4.99993 4.99993 0 0. 9.
 -11 -1 0 0 0 0 0 0 -5 5 0 0. 9.
 15 1 1 2 0 0 -3.43661 -2.808 -1.46521 4.99998 1.7768 0. 1
 -15 1 1 2 0 0 3.43661 2.808 1.46515 4.99996 1.7768 0. -1
</event>
<event>
 4 80 1 -1 -1 -1
 11 -1 0 0 0 0 0 0 4.95375 4.95375 0 0. 9.
 -11 -1 0 0 0 0 0 0 -5 5 0 0. 9.
 15 1 1 2 0 0 -0.247237 -0.888057 4.53337 4.9557 1.7768 0. 1
 -15 1 1 2 0 0 0.247237 0.888057 -4.57963 4.99805 1.7768 0. -1
</event>
<event>
 4 80 1 -1 -1 -1
 11 -1 0 0 0 0 0 0 4.67022 4.67022 0 0. 9.
 -11 -1 0 0 0 0 0 0 -5 5 0 0. 9.
 15 1 1 2 0 0 -1.84938 -0.0958062 3.93188 4.6954 1.7768 0. -1
 -15 1 1 2 0 0 1.84938 0.0958062 -4.26166 4.97482 1.7768 0. 1
</event>
<event>
 4 80 1 -1 -1 -1
 11 -1 0 0 0 0 0 0 4.99708 4.99708 0 0. 9.
 -11 -1 0 0 0 0 0 0 -4.96602 4.96602 0 0. 9.
 15 1 1 2 0 0 1.83462 2.65756 -3.33552 4.9711 1.7768 0. 1
 -15 1 1 2 0 0 -1.83462 -2.65756 3.36658 4.992 1.7768 0. -1
</event>
<event>
 4 80 1 -1 -1 -1
 11 -1 0 0 0 0 0 0 5 5 0 0. 9.
 -11 -1 0 0 0 0 0 0 -5 5 0 0. 9.
 15 1 1 2 0 0 1.32753 3.01907 3.31137 5 1.7768 0. 1
 -15 1 1 2 0 0 -1.32753 -3.01907 -3.31137 5 1.7768 0. -1
</event>
<event>
 4 80 1 -1 -1 -1
 11 -1 0 0 0 0 0 0 4.90952 4.90952 0 0. 9.
 -11 -1 0 0 0 0 0 0 -5 5 0 0. 9.
 15 1 1 2 0 0 2.33335 1.54581 3.63673 4.92114 1.7768 0. -1
 -15 1 1 2 0 0 -2.33335 -1.54581 -3.72721 4.98838 1.7768 0. 1
</event>
<event>
 4 80 1 -1 -1 -1
 11 -1 0 0 0 0 0 0 5 5 0 0. 9.
 -11 -1 0 0 0 0 0 0 -5 5 0 0. 9.
 15 1 1 2 0 0 -1.03719 1.73416 4.21417 5 1.7768 0. 1
 -15 1 1 2 0 0 1.03719 -1.73416 -4.21417 5 1.7768 0. -1
</event>
<event>
 4 80 1 -1 -1 -1
 11 -1 0 0 0 0 0 0 4.99312 4.99312 0 0. 9.
 -11 -1 0 0 0 0 0 0 -4.978 4.978 0 0. 9.
 15 1 1 2 0 0 0.375193 0.82647 4.57639 4.99249 1.7768 0. 1
 -15 1 1 2 0 0 -0.375193 -0.82647 -4.56128 4.97863 1.7768 0. -1
</event>
<event>
 4 80 1 -1 -1 -1
 11 -1 0 0 0 0 0 0 4.99995 4.99995 0 0. 9.
 -11 -1 0 0 0 0 0 0 -5 5 0 0. 9.
 15 1 1 2 0 0 -0.0994014 -4.19695 2.05369 4.99997 1.7768 0. -1
 -15 1 1 2 0 0 0.0994014 4.19695 -2.05374 4.99999 1.7768 0. 1
</event>
<event>
 4 80 1 -1 -1 -1
 11 -1 0 0 0 0 0 0 4.91148 4.91148 0 0. 9.
 -11 -1 0 0 0 0 0 0 -5 5 0 0. 9.
 15 1 1 2 0 0 0.969013 -0.0481781 4.47902 4.91535 1.7768 0. -1
 -15 1 1 2 0 0 -0.969013 0.0481781 -4.56753 4.99614 1.7768 0. 1
</event>
<event>
 4 80 1 -1 -1 -1
 11 -1 0 0 0 0 0 0 4.91704 4.91704 0 0. 9.
 -11 -1 0 0 0 0 0 0 -5 5 0 0. 9.
 15 1 1 2 0 0 3.74242 2.653 0.577715 4.95334 1.7768 0. 1
 -15 1 1 2 0 0 -3.74242 -2.653 -0.66067 4.9637 1.7768 0. -1
</event>
<event>
 4 80 1 -1 -1 -1
 11 -1 0 0 0 0 0 0 5 5 0 0. 9.
 -11 -1 0 0 0 0 0 0 -0.92982 0.92982 0 0. 9.
 15 1 1 2 0 0 0.824577 0.835662 1.57262 2.64748 1.7768 0. -1
 -15 1 1 2 0 0 -0.824577 -0.835662 2.49756 3.28234 1.7768 0. 1
</event>
<event>
 4 80 1 -1 -1 -1
 11 -1 0 0 0 0 0 0 5 5 0 0. 9.
 -11 -1 0 0 0 0 0 0 -5 5 0 0. 9.
 15 1 1 2 0 0 4.33424 -1.27266 1.19873 5 1.7768 0. 1
 -15 1 1 2 0 0 -4.33424 1.27266 -1.19873 5 1.7768 0. -1
</event>
<event>
 4 80 1 -1 -1 -1
 11 -1 0 0 0 0 0 0 5 5 0 0. 9.
 -11 -1 0 0 0 0 0 0 -5 5 0 0. 9.
 15 1 1 2 0 0 -4.52211 0.333571 -1.13205 5 1.7768 0. 1
 -15 1 1 2 0 0 4.52211 -0.333571 1.13205 5 1.7768 0. -1
</event>
<event>
 4 80 1 -1 -1 -1
 11 -1 0 0 0 0 0 0 4.98188 4.98188 0 0. 9.
 -11 -1 0 0 0 0 0 0 -4.99999 4.99999 0 0. 9.
 15 1 1 2 0 0 -3.94839 2.3919 -0.672868 4.99214 1.7768 0. 1
 -15 1 1 2 0 0 3.94839 -2.3919 0.654755 4.98973 1.7768 0. -1
</event>
<event>
 4 80 1 -1 -1 -1
 11 -1 0 0 0 0 0 0 4.73177 4.73177 0 0. 9.
 -11 -1 0 0 0 0 0 0 -5 5 0 0. 9.
 15 1 1 2 0 0 -1.39265 -4.13337 -1.34984 4.89939 1.7768 0. -1
 -15 1 1 2 0 0 1.39265 4.13337 1.08161 4.83238 1.7768 0. 1
</event>
<event>
 4 80 1 -1 -1 -1
 11 -1 0 0 0 0 0 0 5 5 0 0. 9.
 -11 -1 0 0 0 0 0 0 -5 5 0 0. 9.
 15 1 1 2 0 0 4.42109 1.31692 0.749604 5 1.7768 0. -1
 -15 1 1 2 0 0 -4.42109 -1.31692 -0.749604 5 1.7768 0. 1
</event>
<event>
 4 80 1 -1 -1 -1
 11 -1 0 0 0 0 0 0 4.99993 4.99993 0 0. 9.
 -11 -1 0 0 0 0 0 0 -5 5 0 0. 9.
 15 1 1 2 0 0 -0.879536 -0.696871 -4.53685 5 1.7768 0. -1
 -15 1 1 2 0 0 0.879536 0.696871 4.53678 4.99993 1.7768 0. 1
</event>
<event>
 4 80 1 -1 -1 -1
 11 -1 0 0 0 0 0 0 5 5 0 0. 9.
 -11 -1 0 0 0 0 0 0 -5 5 0 0. 9.
 15 1 1 2 0 0 0.0190199 -0.817426 4.60149 5 1.7768 0. 1
 -15 1 1 2 0 0 -0.0190199 0.817426 -4.60149 5 1.7768 0. -1
</event>
<event>
 4 80 1 -1 -1 -1
 11 -1 0 0 0 0 0 0 4.9998 4.9998 0 0. 9.
 -11 -1 0 0 0 0 0 0 -4.99995 4.99995 0 0. 9.
 15 1 1 2 0 0 -3.78184 -2.71595 0.402713 4.99987 1.7768 0. 1
 -15 1 1 2 0 0 3.78184 2.71595 -0.402862 4.99988 1.7768 0. -1
</event>
<event>
 4 80 1 -1 -1 -1
 11 -1 0 0 0 0 0 0 5 5 0 0. 9.
 -11 -1 0 0 0 0 0 0 -4.99983 4.99983 0 0. 9.
 15 1 1 2 0 0 4.3385 -0.655002 -1.60921 4.99989 1.7768 0. 1
 -15 1 1 2 0 0 -4.3385 0.655002 1.60938 4.99994 1.7768 0. -1
</event>
<event>
 4 80 1 -1 -1 -1
 11 -1 0 0 0 0 0 0 5 5 0 0. 9.
 -11 -1 0 0 0 0 0 0 -1.96975 1.96975 0 0. 9.
 15 1 1 2 0 0 2.33133 0.820924 0.667971 3.11655 1.7768 0. -1
 -15 1 1 2 0 0 -2.33133 -0.820924 2.36228 3.85319 1.7768 0. 1
</event>
<event>
 4 80 1 -1 -1 -1
 11 -1 0 0 0 0 0 0 4.90259 4.90259 0 0. 9.
 -11 -1 0 0 0 0 0 0 -4.97485 4.97485 0 0. 9.
 15 1 1 2 0 0 -3.16819 3.1316 1.14186 4.9301 1.7768 0. 1
 -15 1 1 2 0 0 3.16819 -3.1316 -1.21411 4.94734 1.7768 0. -1
</event>
<event>
 4 80 1 -1 -1 -1
 11 -1 0 0 0 0 0 0 4.99914 4.99914 0 0. 9.
 -11 -1 0 0 0 0 0 0 -5 5 0 0. 9.
 15 1 1 2 0 0 -4.52064 -0.289672 1.14756 4.99947 1.7768 0. -1
 -15 1 1 2 0 0 4.52064 0.289672 -1.14843 4.99967 1.7768 0. 1
</event>
<event>
 4 80 1 -1 -1 -1
 11 -1 0 0 0 0 0 0 4.99995 4.99995 0 0. 9.
 -11 -1 0 0 0 0 0 0 -4.99988 4.99988 0 0. 9.
 15 1 1 2 0 0 -1.24517 -3.96905 -2.13014 4.9999 1.7768 0. 1
 -15 1 1 2 0 0 1.24517 3.96905 2.13021 4.99993 1.7768 0. -1
</event>
<event>
 4 80 1 -1 -1 -1
 11 -1 0 0 0 0 0 0 5 5 0 0. 9.
 -11 -1 0 0 0 0 0 0 -4.99682 4.99682 0 0. 9.
 15 1 1 2 0 0 -1.49551 2.10025 3.89758 4.99965 1.7768 0. 1
 -15 1 1 2 0 0 1.49551 -2.10025 -3.89441 4.99717 1.7768 0. -1
</event>
<event>
 4 80 1 -1 -1 -1
 11 -1 0 0 0 0 0 0 5 5 0 0. 9.
 -11 -1 0 0 0 0 0 0 -5 5 0 0. 9.
 15 1 1 2 0 0 1.02526 0.761952 4.49561 5 1.7768 0. 1
 -15 1 1 2 0 0 -1.02526 -0.761952 -4.49561 5 1.7768 0. -1
</event>
<event>
 4 80 1 -1 -1 -1
 11 -1 0 0 0 0 0 0 5 5 0 0. 9.
 -11 -1 0 0 0 0 0 0 -4.91317 4.91317 0 0. 9.
 15 1 1 2 0 0 -0.454183 -0.555279 -4.5277 4.91655 1.7768 0. 1
 -15 1 1 2 0 0 0.454183 0.555279 4.61453 4.99662 1.7768 0. -1
</event>
<event>
 4 80 1 -1 -1 -1
 11 -1 0 0 0 0 0 0 4.99961 4.99961 0 0. 9.
 -11 -1 0 0 0 0 0 0 -4.69533 4.69533 0 0. 9.
 15 1 1 2 0 0 -3.99677 1.5857 1.50501 4.88993 1.7768 0. -1
 -15 1 1 2 0 0 3.99677 -1.5857 -1.20073 4.80501 1.7768 0. 1
</event>
<event>
 4 80 1 -1 -1 -1
 11 -1 0 0 0 0 0 0 5 5 0 0. 9.
 -11 -1 0 0 0 0 0 0 -4.86376 4.86376 0 0. 9.
 15 1 1 2 0 0 1.74045 -2.50894 3.50896 4.9794 1.7768 0. 1
 -15 1 1 2 0 0 -1.74045 2.50894 -3.37271 4.88435 1.7768 0. -1
</event>
<event>
 4 80 1 -1 -1 -1
 11 -1 0 0 0 0 0 0 5 5 0 0. 9.
 -11 -1 0 0 0 0 0 0 -4.99973 4.99973 0 0. 9.
 15 1 1 2 0 0 3.178 3.40553 -0.378793 4.99985 1.7768 0. -1
 -15 1 1 2 0 0 -3.178 -3.40553 0.379063 4.99988 1.7768 0. 1
</event>
<event>
 4 80 1 -1 -1 -1
 11 -1 0 0 0 0 0 0 4.97946 4.97946 0 0. 9.
 -11 -1 0 0 0 0 0 0 -5 5 0 0. 9.
 15 1 1 2 0 0 -2.47725 3.41848 1.96881 4.98565 1.7768 0. -1
 -15 1 1 2 0 0 2.47725 -3.41848 -1.98935 4.9938 1.7768 0. 1
</event>
<event>
 4 80 1 -1 -1 -1
 11 -1 0 0 0 0 0 0 5 5 0 0. 9.
 -11 -1 0 0 0 0 0 0 -5 5 0 0. 9.
 15 1 1 2 0 0 3.36852 -1.31422 -2.96111 5 1.7768 0. -1
 -15 1 1 2 0 0 -3.36852 1.31422 2.96111 5 1.7768 0. 1
</event>
<event>
 4 80 1 -1 -1 -1
 11 -1 0 0 0 0 0 0 5 5 0 0. 9.
 -11 -1 0 0 0 0 0 0 -5 5 0 0. 9.
 15 1 1 2 0 0 4.56716 0.545562 0.82807 5 1.7768 0. -1
 -15 1 1 2 0 0 -4.56716 -0.545562 -0.82807 5 1.7768 0. 1
</event>
<event>
 4 80 1 -1 -1 -1
 11 -1 0 0 0 0 0 0 5 5 0 0. 9.
 -11 -1 0 0 0 0 0 0 -4.99986 4.99986 0 0. 9.
 15 1 1 2 0 0 0.453138 -3.98318 2.40225 4.99996 1.7768 0. -1
 -15 1 1 2 0 0 -0.453138 3.98318 -2.40211 4.99989 1.7768 0. 1
</event>
<event>
 4 80 1 -1 -1 -1
 11 -1 0 0 0 0 0 0 5 5 0 0. 9.
 -11 -1 0 0 0 0 0 0 -5 5 0 0. 9.
 15 1 1 2 0 0 0.848472 -0.257692 4.58867 5 1.7768 0. 1
 -15 1 1 2 0 0 -0.848472 0.257692 -4.58868 5 1.7768 0. -1
</event>
<event>
 4 80 1 -1 -1 -1
 11 -1 0 0 0 0 0 0 4.99976 4.99976 0 0. 9.
 -11 -1 0 0 0 0 0 0 -4.95936 4.95936 0 0. 9.
 15 1 1 2 0 0 -1.21461 2.90647 -3.40256 4.96568 1.7768 0. 1
 -15 1 1 2 0 0 1.21461 -2.90647 3.44296 4.99345 1.7768 0. -1
</event>
<event>
 4 80 1 -1 -1 -1
 11 -1 0 0 0 0 0 0 4.99995 4.99995 0 0. 9.
 -11 -1 0 0 0 0 0 0 -5 5 0 0. 9.
 15 1 1 2 0 0 2.81789 -3.60882 -0.936995 4.99998 1.7768 0. 1
 -15 1 1 2 0 0 -2.81789 3.60882 0.93695 4.99997 1.7768 0. -1
</event>
<event>
 4 80 1 -1 -1 -1
 11 -1 0 0 0 0 0 0 4.96506 4.96506 0 0. 9.
 -11 -1 0 0 0 0 0 0 -4.99971 4.99971 0 0. 9.
 15 1 1 2 0 0 -4.37438 1.52167 -0.481511 4.984 1.7768 0. -1
 -15 1 1 2 0 0 4.37438 -1.52167 0.446862 4.98077 1.7768 0. 1
</event>
<event>
 4 80 1 -1 -1 -1
 11 -1 0 0 0 0 0 0 5 5 0 0. 9.
 -11 -1 0 0 0 0 0 0 -4.88013 4.88013 0 0. 9.
 15 1 1 2 0 0 2.46119 3.63865 1.45492 4.95699 1.7768 0. 1
 -15 1 1 2 0 0 -2.46119 -3.63865 -1.33504 4.92314 1.7768 0. -1
</event>
<event>
 4 80 1 -1 -1 -1
 11 -1 0 0 0 0 0 0 5 5 0 0. 9.
 -11 -1 0 0 0 0 0 0 -4.99997 4.99997 0 0. 9.
 15 1 1 2 0 0 3.03082 -1.89476 -3.01099 4.99998 1.7768 0. 1
 -15 1 1 2 0 0 -3.03082 1.89476 3.01102 4.99999 1.7768 0. -1
</event>
<event>
 4 80 1 -1 -1 -1
 11 -1 0 0 0 0 0 0 5 5 0 0. 9.
 -11 -1 0 0 0 0 0 0 -4.70577 4.70577 0 0. 9.
 15 1 1 2 0 0 2.5889 2.25081 3.08148 4.94184 1.7768 0. -1
 -15 1 1 2 0 0 -2.5889 -2.25081 -2.78725 4.76393 1.7768 0. 1
</event>
<event>
 4 80 1 -1 -1 -1
 11 -1 0 0 0 0 0 0 5 5 0 0. 9.
 -11 -1 0 0 0 0 0 0 -5 5 0 0. 9.
 15 1 1 2 0 0 1.01716 -0.904758 -4.47091 5 1.7768 0. -1
 -15 1 1 2 0 0 -1.01716 0.904758 4.47091 5 1.7768 0. 1
</event>
<event>
 4 80 1 -1 -1 -1
 11 -1 0 0 0 0 0 0 4.1355 4.1355 0 0. 9.
 -11 -1 0 0 0 0 0 0 -2.08571 2.08571 0 0. 9.
 15 1 1 2 0 0 -2.23565 -0.677557 1.13352 3.1464 1.7768 0. 1
 -15 1 1 2 0 0 2.23565 0.677557 0.916267 3.07482 1.7768 0. -1
</event>
<event>
 4 80 1 -1 -1 -1
 11 -1 0 0 0 0 0 0 5 5 0 0. 9.
 -11 -1 0 0 0 0 0 0 -5 5 0 0. 9.
 15 1 1 2 0 0 -3.95164 0.961809 -2.30255 5 1.7768 0. 1
 -15 1 1 2 0 0 3.95164 -0.961809 2.30255 5 1.7768 0. -1
</event>
<event>
 4 80 1 -1 -1 -1
 11 -1 0 0 0 0 0 0 4.82633 4.82633 0 0. 9.
 -11 -1 0 0 0 0 0 0 -4.89674 4.89674 0 0. 9.
 15 1 1 2 0 0 -0.782364 -1.72113 -4.14642 4.89131 1.7768 0. 1
 -15 1 1 2 0 0 0.782364 1.72113 4.07601 4.83176 1.7768 0. -1
</event>
<event>
 4 80 1 -1 -1 -1
 11 -1 0 0 0 0 0 0 4.81803 4.81803 0 0. 9.
 -11 -1 0 0 0 0 0 0 -5 5 0 0. 9.
 15 1 1 2 0 0 1.25912 -3.58431 -2.64088 4.95628 1.7768 0. 1
 -15 1 1 2 0 0 -1.25912 3.58431 2.45892 4.86176 1.7768 0. -1
</event>
<event>
 4 80 1 -1 -1 -1
 11 -1 0 0 0 0 0 0 4.99522 4.99522 0 0. 9.
 -11 -1 0 0 0 0 0 0 -4.43998 4.43998 0 0. 9.
 15 1 1 2 0 0 3.92403 -1.56767 -0.803753 4.65396 1.7768 0. -1
 -15 1 1 2 0 0 -3.92403 1.56767 1.35899 4.78123 1.7768 0. 1
</event>
<event>
 4 80 1 -1 -1 -1
 11 -1 0 0 0 0 0 0 1.44859 1.44859 0 0. 9.
 -11 -1 0 0 0 0 0 0 -5 5 0 0. 9.
 15 1 1 2 0 0 -0.31202 1.03522 0.270199 2.09756 1.7768 0. 1
 -15 1 1 2 0 0 0.31202 -1.03522 -3.82161 4.35103 1.7768 0. -1
</event>
<event>
 4 80 1 -1 -1 -1
 11 -1 0 0 0 0 0 0 4.99989 4.99989 0 0. 9.
 -11 -1 0 0 0 0 0 0 -5 5 0 0. 9.
 15 1 1 2 0 0 -2.84098 0.505984 -3.67627 4.99999 1.7768 0. 1
 -15 1 1 2 0 0 2.84098 -0.505984 3.67616 4.9999 1.7768 0. -1
</event>
<event>
 4 80 1 -1 -1 -1
 11 -1 0 0 0 0 0 0 5 5 0 0. 9.
 -11 -1 0 0 0 0 0 0 -4.96253 4.96253 0 0. 9.
 15 1 1 2 0 0 -3.57089 -0.0991355 -2.96354 4.97005 1.7768 0. -1
 -15 1 1 2 0 0 3.57089 0.0991355 3.00101 4.99248 1.7768 0. 1
</event>
<event>
 4 80 1 -1 -1 -1
 11 -1 0 0 0 0 0 0 4.99022 4.99022 0 0. 9.
 -11 -1 0 0 0 0 0 0 -5 5 0 0. 9.
 15 1 1 2 0 0 -4.03718 -2.03387 1.16042 4.99397 1.7768 0. 1
 -15 1 1 2 0 0 4.03718 2.03387 -1.1702 4.99625 1.7768 0. -1
</event>
<event>
 4 80 1 -1 -1 -1
 11 -1 0 0 0 0 0 0 4.98868 4.98868 0 0. 9.
 -11 -1 0 0 0 0 0 0 -5 5 0 0. 9.
 15 1 1 2 0 0 1.6777 -3.81417 2.09746 4.99196 1.7768 0. 1
 -15 1 1 2 0 0 -1.6777 3.81417 -2.10878 4.99672 1.7768 0. -1
</event>
<event>
 4 80 1 -1 -1 -1
 11 -1 0 0 0 0 0 0 5 5 0 0. 9.
 -11 -1 0 0 0 0 0 0 -5 5 0 0. 9.
 15 1 1 2 0 0 -2.01213 2.39903 3.46962 5 1.7768 0. 1
 -15 1 1 2 0 0 2.01213 -2.39903 -3.46962 5 1.7768 0. -1
</event>
<event>
 4 80 1 -1 -1 -1
 11 -1 0 0 0 0 0 0 4.99933 4.99933 0 0. 9.
 -11 -1 0 0 0 0 0 0 -3.14506 3.14506 0 0. 9.
 15 1 1 2 0 0 -2.35091 -2.02911 2.68244 4.47183 1.7768 0. -1
 -15 1 1 2 0 0 2.35091 2.02911 -0.828171 3.67256 1.7768 0. 1
</event>
<event>
 4 80 1 -1 -1 -1
 11 -1 0 0 0 0 0 0 5 5 0 0. 9.
 -11 -1 0 0 0 0 0 0 -4.31916 4.31916 0 0. 9.
 15 1 1 2 0 0 3.97114 0.697591 1.82136 4.76777 1.7768 0. 1
 -15 1 1 2 0 0 -3.97114 -0.697591 -1.14051 4.55138 1.7768 0. -1
</event>
<event>
 4 80 1 -1 -1 -1
 11 -1 0 0 0 0 0 0 3.07583 3.07583 0 0. 9.
 -11 -1 0 0 0 0 0 0 -5 5 0 0. 9.
 15 1 1 2 0 0 3.25322 -0.77181 -2.01329 4.28838 1.7768 0. -1
 -15 1 1 2 0 0 -3.25322 0.77181 0.0891155 3.78745 1.7768 0. 1
</event>
<event>
 4 80 1 -1 -1 -1
 11 -1 0 0 0 0 0 0 4.99204 4.99204 0 0. 9.
 -11 -1 0 0 0 0 0 0 -5 5 0 0. 9.
 15 1 1 2 0 0 1.37101 -2.89174 -3.40407 4.99873 1.7768 0. 1
 -15 1 1 2 0 0 -1.37101 2.89174 3.39611 4.99331 1.7768 0. -1
</event>
<event>
 4 80 1 -1 -1 -1
 11 -1 0 0 0 0 0 0 5 5 0 0. 9.
 -11 -1 0 0 0 0 0 0 -5 5 0 0. 9.
 15 1 1 2 0 0 1.99515 -3.13796 2.83105 5 1.7768 0. 1
 -15 1 1 2 0 0 -1.99515 3.13796 -2.83105 5 1.7768 0. -1
</event>
<event>
 4 80 1 -1 -1 -1
 11 -1 0 0 0 0 0 0 4.98462 4.98462 0 0. 9.
 -11 -1 0 0 0 0 0 0 -4.98488 4.98488 0 0. 9.
 15 1 1 2 0 0 4.39006 1.37643 0.722892 4.98473 1.7768 0. -1
 -15 1 1 2 0 0 -4.39006 -1.37643 -0.723148 4.98477 1.7768 0. 1
</event>
<event>
 4 80 1 -1 -1 -1
 11 -1 0 0 0 0 0 0 3.6948 3.6948 0 0. 9.
 -11 -1 0 0 0 0 0 0 -2.01954 2.01954 0 0. 9.
 15 1 1 2 0 0 1.69392 0.0797278 2.0877 3.22365 1.7768 0. -1
 -15 1 1 2 0 0 -1.69392 -0.0797278 -0.412444 2.49069 1.7768 0. 1
</event>
<event>
 4 80 1 -1 -1 -1
 11 -1 0 0 0 0 0 0 5 5 0 0. 9.
 -11 -1 0 0 0 0 0 0 -3.97767 3.97767 0 0. 9.
 15 1 1 2 0 0 0.432674 -3.25647 2.96409 4.76816 1.7768 0. 1
 -15 1 1 2 0 0 -0.432674 3.25647 -1.94177 4.20951 1.7768 0. -1
</event>
<event>
 4 80 1 -1 -1 -1
 11 -1 0 0 0 0 0 0 5 5 0 0. 9.
 -11 -1 0 0 0 0 0 0 -4.66152 4.66152 0 0. 9.
 15 1 1 2 0 0 1.41682 -2.66792 -3.15315 4.71437 1.7768 0. 1
 -15 1 1 2 0 0 -1.41682 2.66792 3.49163 4.94716 1.7768 0. -1
</event>
<event>
 4 80 1 -1 -1 -1
 11 -1 0 0 0 0 0 0 4.41212 4.41212 0 0. 9.
 -11 -1 0 0 0 0 0 0 -4.99748 4.99748 0 0. 9.
 15 1 1 2 0 0 -1.16228 2.0656 -3.94312 4.93189 1.7768 0. -1
 -15 1 1 2 0 0 1.16228 -2.0656 3.35776 4.47771 1.7768 0. 1
</event>
<event>
 4 80 1 -1 -1 -1
 11 -1 0 0 0 0 0 0 5 5 0 0. 9.
 -11 -1 0 0 0 0 0 0 -4.9863 4.9863 0 0. 9.
 15 1 1 2 0 0 -1.07642 1.89098 -4.12102 4.98749 1.7768 0. 1
 -15 1 1 2 0 0 1.07642 -1.89098 4.13472 4.99881 1.7768 0. -1
</event>
<event>
 4 80 1 -1 -1 -1
 11 -1 0 0 0 0 0 0 4.99684 4.99684 0 0. 9.
 -11 -1 0 0 0 0 0 0 -5 5 0 0. 9.
 15 1 1 2 0 0 2.63717 1.82734 3.3944 4.99735 1.7768 0. 1
 -15 1 1 2 0 0 -2.63717 -1.82734 -3.39756 4.99949 1.7768 0. -1
</event>
<event>
 4 80 1 -1 -1 -1
 11 -1 0 0 0 0 0 0 5 5 0 0. 9.
 -11 -1 0 0 0 0 0 0 -4.91379 4.91379 0 0. 9.
 15 1 1 2 0 0 3.98931 -1.74838 -1.51894 4.94331 1.7768 0. 1
 -15 1 1 2 0 0 -3.98931 1.74838 1.60515 4.97048 1.7768 0. -1
</event>
<event>
 4 80 1 -1 -1 -1
 11 -1 0 0 0 0 0 0 4.46363 4.46363 0 0. 9.
 -11 -1 0 0 0 0 0 0 -5 5 0 0. 9.
 15 1 1 2 0 0 -2.75848 3.02199 1.28954 4.64352 1.7768 0. 1
 -15 1 1 2 0 0 2.75848 -3.02199 -1.82592 4.8201 1.7768 0. -1
</event>
<event>
 4 80 1 -1 -1 -1
 11 -1 0 0 0 0 0 0 5 5 0 0. 9.
 -11 -1 0 0 0 0 0 0 -5 5 0 0. 9.
 15 1 1 2 0 0 -0.604045 -4.32731 1.65886 5 1.7768 0. -1
 -15 1 1 2 0 0 0.604045 4.32731 -1.65886 5 1.7768 0. 1
</event>
<event>
 4 80 1 -1 -1 -1
 11 -1 0 0 0 0 0 0 5 5 0 0. 9.
 -11 -1 0 0 0 0 0 0 -5 5 0 0. 9.
 15 1 1 2 0 0 -1.6753 -4.30432 0.71305 5 1.7768 0. -1
 -15 1 1 2 0 0 1.6753 4.30432 -0.71305 5 1.7768 0. 1
</event>
<event>
 4 80 1 -1 -1 -1
 11 -1 0 0 0 0 0 0 4.1118 4.1118 0 0. 9.
 -11 -1 0 0 0 0 0 0 -5 5 0 0. 9.
 15 1 1 2 0 0 -3.00778 0.421846 2.42905 4.27583 1.7768 0. 1
 -15 1 1 2 0 0 3.00778 -0.421846 -3.31725 4.83597 1.7768 0. -1
</event>
<event>
 4 80 1 -1 -1 -1
 11 -1 0 0 0 0 0 0 3.26923 3.26923 0 0. 9.
 -11 -1 0 0 0 0 0 0 -4.98407 4.98407 0 0. 9.
 15 1 1 2 0 0 -0.329002 3.27981 -2.398 4.44675 1.7768 0. 1
 -15 1 1 2 0 0 0.329002 -3.27981 0.683158 3.80655 1.7768 0. -1
</event>
<event>
 4 80 1 -1 -1 -1
 11 -1 0 0 0 0 0 0 5 5 0 0. 9.
 -11 -1 0 0 0 0 0 0 -5 5 0 0. 9.
 15 1 1 2 0 0 1.81485 -4.10455 -1.30434 5 1.7768 0. -1
 -15 1 1 2 0 0 -1.81485 4.10455 1.30434 5 1.7768 0. 1
</event>
<event>
 4 80 1 -1 -1 -1
 11 -1 0 0 0 0 0 0 4.99996 4.99996 0 0. 9.
 -11 -1 0 0 0 0 0 0 -0.839582 0.839582 0 0. 9.
 15 1 1 2 0 0 0.79365 0.335369 2.85785 3.47381 1.7768 0. -1
 -15 1 1 2 0 0 -0.79365 -0.335369 1.30252 2.36572 1.7768 0. 1
</event>
<event>
 4 80 1 -1 -1 -1
 11 -1 0 0 0 0 0 0 4.99999 4.99999 0 0. 9.
 -11 -1 0 0 0 0 0 0 -5 5 0 0. 9.
 15 1 1 2 0 0 -2.5728 1.48895 3.60637 4.99999 1.7768 0. -1
 -15 1 1 2 0 0 2.5728 -1.48895 -3.60638 5 1.7768 0. 1
</event>
<event>
 4 80 1 -1 -1 -1
 11 -1 0 0 0 0 0 0 4.5123 4.5123 0 0. 9.
 -11 -1 0 0 0 0 0 0 -5 5 0 0. 9.
 15 1 1 2 0 0 3.39021 -2.80046 -0.504306 4.7695 1.7768 0. -1
 -15 1 1 2 0 0 -3.39021 2.80046 0.0166016 4.74279 1.7768 0. 1
</event>
<event>
 4 80 1 -1 -1 -1
 11 -1 0 0 0 0 0 0 4.72176 4.72176 0 0. 9.
 -11 -1 0 0 0 0 0 0 -5 5 0 0. 9.
 15 1 1 2 0 0 -1.96466 3.7387 -1.75637 4.90717 1.7768 0. -1
 -15 1 1 2 0 0 1.96466 -3.7387 1.47813 4.8146 1.7768 0. 1
</event>
<event>
 4 80 1 -1 -1 -1
 11 -1 0 0 0 0 0 0 5 5 0 0. 9.
 -11 -1 0 0 0 0 0 0 -5 5 0 0. 9.
 15 1 1 2 0 0 4.37386 -0.424375 1.59109 5 1.7768 0. -1
 -15 1 1 2 0 0 -4.37386 0.424375 -1.59109 5 1.7768 0. 1
</event>
<event>
 4 80 1 -1 -1 -1
 11 -1 0 0 0 0 0 0 4.99992 4.99992 0 0. 9.
 -11 -1 0 0 0 0 0 0 -1.59833 1.59833 0 0. 9.
 15 1 1 2 0 0 -1.20715 -0.92262 3.55537 4.25522 1.7768 0. 1
 -15 1 1 2 0 0 1.20715 0.92262 -0.153779 2.34304 1.7768 0. -1
</event>
<event>
 4 80 1 -1 -1 -1
 11 -1 0 0 0 0 0 0 5 5 0 0. 9.
 -11 -1 0 0 0 0 0 0 -5 5 0 0. 9.
 15 1 1 2 0 0 -2.09069 -1.65017 -3.84034 5 1.7768 0. 1
 -15 1 1 2 0 0 2.09069 1.65017 3.84034 5 1.7768 0. -1
</event>
<event>
 4 80 1 -1 -1 -1
 11 -1 0 0 0 0 0 0 4.98 4.98 0 0. 9.
 -11 -1 0 0 0 0 0 0 -5 5 0 0. 9.
 15 1 1 2 0 0 3.7531 2.25133 1.59873 4.98677 1.7768 0. -1
 -15 1 1 2 0 0 -3.7531 -2.25133 -1.61873 4.99322 1.7768 0. 1
</event>
<event>
 4 80 1 -1 -1 -1
 11 -1 0 0 0 0 0 0 5 5 0 0. 9.
 -11 -1 0 0 0 0 0 0 -1.5689 1.5689 0 0. 9.
 15 1 1 2 0 0 1.64965 1.28844 2.36358 3.62294 1.7768 0. -1
 -15 1 1 2 0 0 -1.64965 -1.28844 1.06751 2.94597 1.7768 0. 1
</event>
<event>
 4 80 1 -1 -1 -1
 11 -1 0 0 0 0 0 0 5 5 0 0. 9.
 -11 -1 0 0 0 0 0 0 -4.35877 4.35877 0 0. 9.
 15 1 1 2 0 0 -4.198 -0.760039 -0.340684 4.63407 1.7768 0. -1
 -15 1 1 2 0 0 4.198 0.760039 0.981915 4.72469 1.7768 0. 1
</event>
<event>
 4 80 1 -1 -1 -1
 11 -1 0 0 0 0 0 0 1.95814 1.95814 0 0. 9.
 -11 -1 0 0 0 0 0 0 -4.91083 4.91083 0 0. 9.
 15 1 1 2 0 0 -0.00426062 -0.228823 1.32686 2.2295 1.7768 0. -1
 -15 1 1 2 0 0 0.00426062 0.228823 -4.27955 4.63947 1.7768 0. 1
</event>
<event>
 4 80 1 -1 -1 -1
 11 -1 0 0 0 0 0 0 5 5 0 0. 9.
 -11 -1 0 0 0 0 0 0 -4.99995 4.99995 0 0. 9.
 15 1 1 2 0 0 -2.77535 2.52845 2.78326 4.99999 1.7768 0. -1
 -15 1 1 2 0 0 2.77535 -2.52845 -2.78321 4.99996 1.7768 0. 1
</event>
<event>
 4 80 1 -1 -1 -1
 11 -1 0 0 0 0 0 0 5 5 0 0. 9.
 -11 -1 0 0 0 0 0 0 -4.99351 4.99351 0 0. 9.
 15 1 1 2 0 0 1.36711 -2.41134 -3.75525 4.99432 1.7768 0. 1
 -15 1 1 2 0 0 -1.36711 2.41134 3.76174 4.9992 1.7768 0. -1
</event>
<event>
 4 80 1 -1 -1 -1
 11 -1 0 0 0 0 0 0 5 5 0 0. 9.
 -11 -1 0 0 0 0 0 0 -4.78367 4.78367 0 0. 9.
 15 1 1 2 0 0 3.18797 -2.66787 1.97409 4.93309 1.7768 0. 1
 -15 1 1 2 0 0 -3.18797 2.66787 -1.75776 4.85058 1.7768 0. -1
</event>
<event>
 4 80 1 -1 -1 -1
 11 -1 0 0 0 0 0 0 4.97631 4.97631 0 0. 9.
 -11 -1 0 0 0 0 0 0 -1.9775 1.9775 0 0. 9.
 15 1 1 2 0 0 0.982312 1.12879 -0.837066 2.46931 1.7768 0. 1
 -15 1 1 2 0 0 -0.982312 -1.12879 3.83587 4.4845 1.7768 0. -1
</event>
<event>
 4 80 1 -1 -1 -1
 11 -1 0 0 0 0 0 0 5 5 0 0. 9.
 -11 -1 0 0 0 0 0 0 -5 5 0 0. 9.
 15 1 1 2 0 0 -1.68821 4.35695 -0.0957736 5 1.7768 0. -1
 -15 1 1 2 0 0 1.68821 -4.35695 0.0957736 5 1.7768 0. 1
</event>
<event>
 4 80 1 -1 -1 -1
 11 -1 0 0 0 0 0 0 5 5 0 0. 9.
 -11 -1 0 0 0 0 0 0 -4.99976 4.99976 0 0. 9.
 15 1 1 2 0 0 4.50503 0.539869 -1.11985 4.99985 1.7768 0. -1
 -15 1 1 2 0 0 -4.50503 -0.539869 1.12009 4.99991 1.7768 0. 1
</event>
<event>
 4 80 1 -1 -1 -1
 11 -1 0 0 0 0 0 0 5 5 0 0. 9.
 -11 -1 0 0 0 0 0 0 -1.55515 1.55515 0 0. 9.
 15 1 1 2 0 0 2.10994 -0.282684 2.06762 3.45898 1.7768 0. -1
 -15 1 1 2 0 0 -2.10994 0.282684 1.37723 3.09617 1.7768 0. 1
</event>
<event>
 4 80 1 -1 -1 -1
 11 -1 0 0 0 0 0 0 5 5 0 0. 9.
 -11 -1 0 0 0 0 0 0 -5 5 0 0. 9.
 15 1 1 2 0 0 1.6939 1.70499 4.00824 5 1.7768 0. 1
 -15 1 1 2 0 0 -1.6939 -1.70499 -4.00824 5 1.7768 0. -1
</event>
<event>
 4 80 1 -1 -1 -1
 11 -1 0 0 0 0 0 0 4.99996 4.99996 0 0. 9.
 -11 -1 0 0 0 0 0 0 -5 5 0 0. 9.
 15 1 1 2 0 0 -1.17574 0.770926 -4.45708 5 1.7768 0. 1
 -15 1 1 2 0 0 1.17574 -0.770926 4.45704 4.99996 1.7768 0. -1
</event>
<event>
 4 80 1 -1 -1 -1
 11 -1 0 0 0 0 0 0 5 5 0 0. 9.
 -11 -1 0 0 0 0 0 0 -5 5 0 0. 9.
 15 1 1 2 0 0 -2.43375 -0.80094 -3.90866 5 1.7768 0. -1
 -15 1 1 2 0 0 2.43375 0.80094 3.90866 5 1.7768 0. 1
</event>
<event>
 4 80 1 -1 -1 -1
 11 -1 0 0 0 0 0 0 5 5 0 0. 9.
 -11 -1 0 0 0 0 0 0 -2.65859 2.65859 0 0. 9.
 15 1 1 2 0 0 1.60681 -2.31936 -0.37788 3.35586 1.7768 0. 1
 -15 1 1 2 0 0 -1.60681 2.31936 2.71929 4.30273 1.7768 0. -1
</event>
<event>
 4 80 1 -1 -1 -1
 11 -1 0 0 0 0 0 0 4.99931 4.99931 0 0. 9.
 -11 -1 0 0 0 0 0 0 -5 5 0 0. 9.
 15 1 1 2 0 0 1.3953 -2.94591 -3.34901 4.99989 1.7768 0. 1
 -15 1 1 2 0 0 -1.3953 2.94591 3.34832 4.99942 1.7768 0. -1
</event>
<event>
 4 80 1 -1 -1 -1
 11 -1 0 0 0 0 0 0 5 5 0 0. 9.
 -11 -1 0 0 0 0 0 0 -4.36967 4.36967 0 0. 9.
 15 1 1 2 0 0 0.178976 1.67867 -3.6739 4.41647 1.7768 0. -1
 -15 1 1 2 0 0 -0.178976 -1.67867 4.30423 4.95319 1.7768 0. 1
</event>
<event>
 4 80 1 -1 -1 -1
 11 -1 0 0 0 0 0 0 4.99993 4.99993 0 0. 9.
 -11 -1 0 0 0 0 0 0 -4.99982 4.99982 0 0. 9.
 15 1 1 2 0 0 2.91576 1.37435 -3.38381 4.99984 1.7768 0. 1
 -15 1 1 2 0 0 -2.91576 -1.37435 3.38392 4.99991 1.7768 0. -1
</event>
<event>
 4 80 1 -1 -1 -1
 11 -1 0 0 0 0 0 0 5 5 0 0. 9.
 -11 -1 0 0 0 0 0 0 -3.92412 3.92412 0 0. 9.
 15 1 1 2 0 0 1.54725 0.230578 -3.23333 4.0074 1.7768 0. -1
 -15 1 1 2 0 0 -1.54725 -0.230578 4.30921 4.91672 1.7768 0. 1
</event>
<event>
 4 80 1 -1 -1 -1
 11 -1 0 0 0 0 0 0 5 5 0 0. 9.
 -11 -1 0 0 0 0 0 0 -4.97604 4.97604 0 0. 9.
 15 1 1 2 0 0 -4.2271 1.60128 1.14775 4.99075 1.7768 0. -1
 -15 1 1 2 0 0 4.2271 -1.60128 -1.12379 4.98529 1.7768 0. 1
</event>
<event>
 4 80 1 -1 -1 -1
 11 -1 0 0 0 0 0 0 4.96598 4.96598 0 0. 9.
 -11 -1 0 0 0 0 0 0 -5 5 0 0. 9.
 15 1 1 2 0 0 2.0002 -3.32642 2.55328 4.97422 1.7768 0. -1
 -15 1 1 2 0 0 -2.0002 3.32642 -2.58729 4.99176 1.7768 0. 1
</event>
<event>
 4 80 1 -1 -1 -1
 11 -1 0 0 0 0 0 0 5 5 0 0. 9.
 -11 -1 0 0 0 0 0 0 -3.84592 3.84592 0 0. 9.
 15 1 1 2 0 0 -3.73667 0.496779 -0.799415 4.24338 1.7768 0. 1
 -15 1 1 2 0 0 3.73667 -0.496779 1.95349 4.60254 1.7768 0. -1
</event>
<event>
 4 80 1 -1 -1 -1
 11 -1 0 0 0 0 0 0 4.99648 4.99648 0 0. 9.
 -11 -1 0 0 0 0 0 0 -5 5 0 0. 9.
 15 1 1 2 0 0 -2.76725 -3.48965 1.4087 4.99775 1.7768 0. 1
 -15 1 1 2 0 0 2.76725 3.48965 -1.41221 4.99874 1.7768 0. -1
</event>
<event>
 4 80 1 -1 -1 -1
 11 -1 0 0 0 0 0 0 5 5 0 0. 9.
 -11 -1 0 0 0 0 0 0 -4.99995 4.99995 0 0. 9.
 15 1 1 2 0 0 3.07849 1.49898 3.1809 4.99999 1.7768 0. -1
 -15 1 1 2 0 0 -3.07849 -1.49898 -3.18085 4.99996 1.7768 0. 1
</event>
<event>
 4 80 1 -1 -1 -1
 11 -1 0 0 0 0 0 0 5 5 0 0. 9.
 -11 -1 0 0 0 0 0 0 -5 5 0 0. 9.
 15 1 1 2 0 0 -1.15578 4.50678 0.442044 5 1.7768 0. -1
 -15 1 1 2 0 0 1.15578 -4.50678 -0.442044 5 1.7768 0. 1
</event>
<event>
 4 80 1 -1 -1 -1
 11 -1 0 0 0 0 0 0 5 5 0 0. 9.
 -11 -1 0 0 0 0 0 0 -4.99993 4.99993 0 0. 9.
 15 1 1 2 0 0 -3.74391 -2.03742 1.91679 4.99998 1.7768 0. -1
 -15 1 1 2 0 0 3.74391 2.03742 -1.91672 4.99995 1.7768 0. 1
</event>
<event>
 4 80 1 -1 -1 -1
 11 -1 0 0 0 0 0 0 5 5 0 0. 9.
 -11 -1 0 0 0 0 0 0 -5 5 0 0. 9.
 15 1 1 2 0 0 0.144289 -4.38625 1.60693 5 1.7768 0. -1
 -15 1 1 2 0 0 -0.144289 4.38625 -1.60693 5 1.7768 0. 1
</event>
<event>
 4 80 1 -1 -1 -1
 11 -1 0 0 0 0 0 0 5 5 0 0. 9.
 -11 -1 0 0 0 0 0 0 -5 5 0 0. 9.
 15 1 1 2 0 0 3.13445 2.83816 -1.99056 5 1.7768 0. 1
 -15 1 1 2 0 0 -3.13445 -2.83816 1.99056 5 1.7768 0. -1
</event>
<event>
 4 80 1 -1 -1 -1
 11 -1 0 0 0 0 0 0 5 5 0 0. 9.
 -11 -1 0 0 0 0 0 0 -5 5 0 0. 9.
 15 1 1 2 0 0 0.986421 -3.90493 2.37082 5 1.7768 0. -1
 -15 1 1 2 0 0 -0.986421 3.90493 -2.37082 5 1.7768 0. 1
</event>
<event>
 4 80 1 -1 -1 -1
 11 -1 0 0 0 0 0 0 5 5 0 0. 9.
 -11 -1 0 0 0 0 0 0 -4.99999 4.99999 0 0. 9.
 15 1 1 2 0 0 -2.72731 0.790883 -3.71193 4.99999 1.7768 0. 1
 -15 1 1 2 0 0 2.72731 -0.790883 3.71194 5 1.7768 0. -1
</event>
<event>
 4 80 1 -1 -1 -1
 11 -1 0 0 0 0 0 0 5 5 0 0. 9.
 -11 -1 0 0 0 0 0 0 -4.99151 4.99151 0 0. 9.
 15 1 1 2 0 0 -2.66115 2.57847 2.84495 4.99817 1.7768 0. 1
 -15 1 1 2 0 0 2.66115 -2.57847 -2.83645 4.99334 1.7768 0. -1
</event>
<event>
 4 80 1 -1 -1 -1
 11 -1 0 0 0 0 0 0 4.96662 4.96662 0 0. 9.
 -11 -1 0 0 0 0 0 0 -4.99989 4.99989 0 0. 9.
 15 1 1 2 0 0 0.439215 4.62809 -0.26702 4.98409 1.7768 0. 1
 -15 1 1 2 0 0 -0.439215 -4.62809 0.233752 4.98242 1.7768 0. -1
</event>
<event>
 4 80 1 -1 -1 -1
 11 -1 0 0 0 0 0 0 5 5 0 0. 9.
 -11 -1 0 0 0 0 0 0 -4.96136 4.96136 0 0. 9.
 15 1 1 2 0 0 4.44484 0.337284 1.35302 4.98585 1.7768 0. -1
 -15 1 1 2 0 0 -4.44484 -0.337284 -1.31438 4.97551 1.7768 0. 1
</event>
<event>
 4 80 1 -1 -1 -1
 11 -1 0 0 0 0 0 0 5 5 0 0. 9.
 -11 -1 0 0 0 0 0 0 -4.99991 4.99991 0 0. 9.
 15 1 1 2 0 0 1.15378 0.342844 -4.51583 4.99992 1.7768 0. -1
 -15 1 1 2 0 0 -1.15378 -0.342844 4.51591 5 1.7768 0. 1
</event>
<event>
 4 80 1 -1 -1 -1
 11 -1 0 0 0 0 0 0 4.8517 4.8517 0 0. 9.
 -11 -1 0 0 0 0 0 0 -4.99848 4.99848 0 0. 9.
 15 1 1 2 0 0 -3.68647 1.9708 -1.97606 4.95344 1.7768 0. -1
 -15 1 1 2 0 0 3.68647 -1.9708 1.82927 4.89674 1.7768 0. 1
</event>
<event>
 4 80 1 -1 -1 -1
 11 -1 0 0 0 0 0 0 5 5 0 0. 9.
 -11 -1 0 0 0 0 0 0 -5 5 0 0. 9.
 15 1 1 2 0 0 1.16263 -2.72387 -3.6154 5 1.7768 0. 1
 -15 1 1 2 0 0 -1.16263 2.72387 3.6154 5 1.7768 0. -1
</event>
<event>
 4 80 1 -1 -1 -1
 11 -1 0 0 0 0 0 0 4.99858 4.99858 0 0. 9.
 -11 -1 0 0 0 0 0 0 -4.99999 4.99999 0 0. 9.
 15 1 1 2 0 0 1.27408 3.72962 -2.51104 4.99964 1.7768 0. 1
 -15 1 1 2 0 0 -1.27408 -3.72962 2.50964 4.99893 1.7768 0. -1
</event>
<event>
 4 80 1 -1 -1 -1
 11 -1 0 0 0 0 0 0 4.95659 4.95659 0 0. 9.
 -11 -1 0 0 0 0 0 0 -5 5 0 0. 9.
 15 1 1 2 0 0 2.91531 3.62298 -0.0349088 4.97835 1.7768 0. -1
 -15 1 1 2 0 0 -2.91531 -3.62298 -0.00849887 4.97823 1.7768 0. 1
</event>
<event>
 4 80 1 -1 -1 -1
 11 -1 0 0 0 0 0 0 5 5 0 0. 9.
 -11 -1 0 0 0 0 0 0 -5 5 0 0. 9.
 15 1 1 2 0 0 -0.265923 -1.51546 -4.41304 5 1.7768 0. -1
 -15 1 1 2 0 0 0.265923 1.51546 4.41304 5 1.7768 0. 1
</event>
<event>
 4 80 1 -1 -1 -1
 11 -1 0 0 0 0 0 0 5 5 0 0. 9.
 -11 -1 0 0 0 0 0 0 -1.3877 1.3877 0 0. 9.
 15 1 1 2 0 0 0.940598 0.216775 3.85275 4.35122 1.7768 0. 1
 -15 1 1 2 0 0 -0.940598 -0.216775 -0.240448 2.03648 1.7768 0. -1
</event>
<event>
 4 80 1 -1 -1 -1
 11 -1 0 0 0 0 0 0 3.97424 3.97424 0 0. 9.
 -11 -1 0 0 0 0 0 0 -5 5 0 0. 9.
 15 1 1 2 0 0 1.26364 -0.960712 -4.30519 4.92058 1.7768 0. 1
 -15 1 1 2 0 0 -1.26364 0.960712 3.27943 4.05366 1.7768 0. -1
</event>
<event>
 4 80 1 -1 -1 -1
 11 -1 0 0 0 0 0 0 5 5 0 0. 9.
 -11 -1 0 0 0 0 0 0 -4.99999 4.99999 0 0. 9.
 15 1 1 2 0 0 -3.5653 -0.970475 -2.86164 4.99999 1.7768 0. 1
 -15 1 1 2 0 0 3.5653 0.970475 2.86165 5 1.7768 0. -1
</event>
<event>
 4 80 1 -1 -1 -1
 11 -1 0 0 0 0 0 0 4.99996 4.99996 0 0. 9.
 -11 -1 0 0 0 0 0 0 -5 5 0 0. 9.
 15 1 1 2 0 0 -0.793327 4.38237 1.41685 4.99998 1.7768 0. -1
 -15 1 1 2 0 0 0.793327 -4.38237 -1.41689 4.99999 1.7768 0. 1
</event>
<event>
 4 80 1 -1 -1 -1
 11 -1 0 0 0 0 0 0 5 5 0 0. 9.
 -11 -1 0 0 0 0 0 0 -4.9998 4.9998 0 0. 9.
 15 1 1 2 0 0 -3.2266 -3.15226 1.22223 4.99993 1.7768 0. 1
 -15 1 1 2 0 0 3.2266 3.15226 -1.22203 4.99988 1.7768 0. -1
</event>
<event>
 4 80 1 -1 -1 -1
 11 -1 0 0 0 0 0 0 4.99995 4.99995 0 0. 9.
 -11 -1 0 0 0 0 0 0 -2.09387 2.09387 0 0. 9.
 15 1 1 2 0 0 -2.08355 0.392358 -0.386618 2.79326 1.7768 0. -1
 -15 1 1 2 0 0 2.08355 -0.392358 3.2927 4.30055 1.7768 0. 1
</event>
<event>
 4 80 1 -1 -1 -1
 11 -1 0 0 0 0 0 0 5 5 0 0. 9.
 -11 -1 0 0 0 0 0 0 -5 5 0 0. 9.
 15 1 1 2 0 0 0.73549 -2.47001 -3.89877 5 1.7768 0. 1
 -15 1 1 2 0 0 -0.73549 2.47001 3.89877 5 1.7768 0. -1
</event>
<event>
 4 80 1 -1 -1 -1
 11 -1 0 0 0 0 0 0 4.99471 4.99471 0 0. 9.
 -11 -1 0 0 0 0 0 0 -5 5 0 0. 9.
 15 1 1 2 0 0 1.80973 4.27428 -0.523384 4.99763 1.7768 0. 1
 -15 1 1 2 0 0 -1.80973 -4.27428 0.518089 4.99708 1.7768 0. -1
</event>
<event>
 4 80 1 -1 -1 -1
 11 -1 0 0 0 0 0 0 4.98151 4.98151 0 0. 9.
 -11 -1 0 0 0 0 0 0 -5 5 0 0. 9.
 15 1 1 2 0 0 0.289294 3.92325 -2.5141 4.9954 1.7768 0. 1
 -15 1 1 2 0 0 -0.289294 -3.92325 2.49561 4.98612 1.7768 0. -1
</event>
<event>
 4 80 1 -1 -1 -1
 11 -1 0 0 0 0 0 0 5 5 0 0. 9.
 -11 -1 0 0 0 0 0 0 -5 5 0 0. 9.
 15 1 1 2 0 0 0.707026 -0.221372 4.61447 5 1.7768 0. -1
 -15 1 1 2 0 0 -0.707026 0.221372 -4.61447 5 1.7768 0. 1
</event>
<event>
 4 80 1 -1 -1 -1
 11 -1 0 0 0 0 0 0 5 5 0 0. 9.
 -11 -1 0 0 0 0 0 0 -5 5 0 0. 9.
 15 1 1 2 0 0 2.02615 -3.58557 2.20923 5 1.7768 0. -1
 -15 1 1 2 0 0 -2.02615 3.58557 -2.20923 5 1.7768 0. 1
</event>
<event>
 4 80 1 -1 -1 -1
 11 -1 0 0 0 0 0 0 4.99991 4.99991 0 0. 9.
 -11 -1 0 0 0 0 0 0 -5 5 0 0. 9.
 15 1 1 2 0 0 -2.54533 -1.86464 -3.44768 4.99999 1.7768 0. 1
 -15 1 1 2 0 0 2.54533 1.86464 3.4476 4.99993 1.7768 0. -1
</event>
<event>
 4 80 1 -1 -1 -1
 11 -1 0 0 0 0 0 0 5 5 0 0. 9.
 -11 -1 0 0 0 0 0 0 -4.99967 4.99967 0 0. 9.
 15 1 1 2 0 0 2.4882 2.46296 3.09586 4.99994 1.7768 0. -1
 -15 1 1 2 0 0 -2.4882 -2.46296 -3.09553 4.99973 1.7768 0. 1
</event>
<event>
 4 80 1 -1 -1 -1
 11 -1 0 0 0 0 0 0 4.9846 4.9846 0 0. 9.
 -11 -1 0 0 0 0 0 0 -5 5 0 0. 9.
 15 1 1 2 0 0 -2.068 4.10279 -0.817472 4.99355 1.7768 0. -1
 -15 1 1 2 0 0 2.068 -4.10279 0.802068 4.99105 1.7768 0. 1
</event>
<event>
 4 80 1 -1 -1 -1
 11 -1 0 0 0 0 0 0 4.99805 4.99805 0 0. 9.
 -11 -1 0 0 0 0 0 0 -4.99997 4.99997 0 0. 9.
 15 1 1 2 0 0 0.984553 -2.0263 4.09259 4.99823 1.7768 0. -1
 -15 1 1 2 0 0 -0.984553 2.0263 -4.09451 4.9998 1.7768 0. 1
</event>
<event>
 4 80 1 -1 -1 -1
 11 -1 0 0 0 0 0 0 5 5 0 0. 9.
 -11 -1 0 0 0 0 0 0 -5 5 0 0. 9.
 15 1 1 2 0 0 0.944915 3.26703 -3.20561 5 1.7768 0. 1
 -15 1 1 2 0 0 -0.944915 -3.26703 3.20561 5 1.7768 0. -1
</event>
<event>
 4 80 1 -1 -1 -1
 11 -1 0 0 0 0 0 0 4.99999 4.99999 0 0. 9.
 -11 -1 0 0 0 0 0 0 -4.99995 4.99995 0 0. 9.
 15 1 1 2 0 0 -0.355363 2.43804 3.97137 4.99999 1.7768 0. -1
 -15 1 1 2 0 0 0.355363 -2.43804 -3.97133 4.99996 1.7768 0. 1
</event>
<event>
 4 80 1 -1 -1 -1
 11 -1 0 0 0 0 0 0 5 5 0 0. 9.
 -11 -1 0 0 0 0 0 0 -4.99969 4.99969 0 0. 9.
 15 1 1 2 0 0 -1.27328 -4.49591 -0.0789843 4.99985 1.7768 0. 1
 -15 1 1 2 0 0 1.27328 4.49591 0.0792894 4.99985 1.7768 0. -1
</event>
<event>
 4 80 1 -1 -1 -1
 11 -1 0 0 0 0 0 0 5 5 0 0. 9.
 -11 -1 0 0 0 0 0 0 -4.99973 4.99973 0 0. 9.
 15 1 1 2 0 0 1.9726 3.74509 1.98106 4.99992 1.7768 0. 1
 -15 1 1 2 0 0 -1.9726 -3.74509 -1.98079 4.99981 1.7768 0. -1
</event>
<event>
 4 80 1 -1 -1 -1
 11 -1 0 0 0 0 0 0 4.99089 4.99089 0 0. 9.
 -11 -1 0 0 0 0 0 0 -5 5 0 0. 9.
 15 1 1 2 0 0 2.5867 -3.88082 -0.216608 4.99564 1.7768 0. 1
 -15 1 1 2 0 0 -2.5867 3.88082 0.207494 4.99525 1.7768 0. -1
</event>
<event>
 4 80 1 -1 -1 -1
 11 -1 0 0 0 0 0 0 4.99957 4.99957 0 0. 9.
 -11 -1 0 0 0 0 0 0 -5 5 0 0. 9.
 15 1 1 2 0 0 -1.77738 -2.20031 3.71996 4.99962 1.7768 0. 1
 -15 1 1 2 0 0 1.77738 2.20031 -3.72039 4.99994 1.7768 0. -1
</event>
<event>
 4 80 1 -1 -1 -1
 11 -1 0 0 0 0 0 0 1.49415 1.49415 0 0. 9.
 -11 -1 0 0 0 0 0 0 -5 5 0 0. 9.
 15 1 1 2 0 0 -1.63091 0.0068164 -0.225502 2.4225 1.7768 0. 1
 -15 1 1 2 0 0 1.63091 -0.0068164 -3.28035 4.07165 1.7768 0. -1
</event>
<event>
 4 80 1 -1 -1 -1
 11 -1 0 0 0 0 0 0 4.99999 4.99999 0 0. 9.
 -11 -1 0 0 0 0 0 0 -5 5 0 0. 9.
 15 1 1 2 0 0 -3.96014 -1.93011 -1.56019 5 1.7768 0. 1
 -15 1 1 2 0 0 3.96014 1.93011 1.56018 4.99999 1.7768 0. -1
</event>
<event>
 4 80 1 -1 -1 -1
 11 -1 0 0 0 0 0 0 5 5 0 0. 9.
 -11 -1 0 0 0 0 0 0 -4.99988 4.99988 0 0. 9.
 15 1 1 2 0 0 2.17853 -3.52488 2.1613 4.99997 1.7768 0. -1
 -15 1 1 2 0 0 -2.17853 3.52488 -2.16118 4.99991 1.7768 0. 1
</event>
<event>
 4 80 1 -1 -1 -1
 11 -1 0 0 0 0 0 0 5 5 0 0. 9.
 -11 -1 0 0 0 0 0 0 -5 5 0 0. 9.
 15 1 1 2 0 0 -3.96728 1.99778 -1.45322 5 1.7768 0. -1
 -15 1 1 2 0 0 3.96728 -1.99778 1.45322 5 1.7768 0. 1
</event>
<event>
 4 80 1 -1 -1 -1
 11 -1 0 0 0 0 0 0 3.34895 3.34895 0 0. 9.
 -11 -1 0 0 0 0 0 0 -4.43597 4.43597 0 0. 9.
 15 1 1 2 0 0 -1.27105 2.77094 -2.10948 4.11112 1.7768 0. 1
 -15 1 1 2 0 0 1.27105 -2.77094 1.02246 3.6738 1.7768 0. -1
</event>
<event>
 4 80 1 -1 -1 -1
 11 -1 0 0 0 0 0 0 4.99259 4.99259 0 0. 9.
 -11 -1 0 0 0 0 0 0 -1.0566 1.0566 0 0. 9.
 15 1 1 2 0 0 0.268736 -0.961156 0.573472 2.11722 1.7768 0. 1
 -15 1 1 2 0 0 -0.268736 0.961156 3.36252 3.93196 1.7768 0. -1
</event>
<event>
 4 80 1 -1 -1 -1
 11 -1 0 0 0 0 0 0 5 5 0 0. 9.
 -11 -1 0 0 0 0 0 0 -4.98862 4.98862 0 0. 9.
 15 1 1 2 0 0 -3.21333 1.10637 -3.19365 4.99066 1.7768 0. 1
 -15 1 1 2 0 0 3.21333 -1.10637 3.20504 4.99795 1.7768 0. -1
</event>
<event>
 4 80 1 -1 -1 -1
 11 -1 0 0 0 0 0 0 5 5 0 0. 9.
 -11 -1 0 0 0 0 0 0 -4.99487 4.99487 0 0. 9.
 15 1 1 2 0 0 2.56595 -3.47511 -1.774 4.99653 1.7768 0. -1
 -15 1 1 2 0 0 -2.56595 3.47511 1.77912 4.99835 1.7768 0. 1
</event>
<event>
 4 80 1 -1 -1 -1
 11 -1 0 0 0 0 0 0 4.99997 4.99997 0 0. 9.
 -11 -1 0 0 0 0 0 0 -4.99999 4.99999 0 0. 9.
 15 1 1 2 0 0 2.80886 1.49229 3.42424 4.99998 1.7768 0. 1
 -15 1 1 2 0 0 -2.80886 -1.49229 -3.42426 4.99999 1.7768 0. -1
</event>
<event>
 4 80 1 -1 -1 -1
 11 -1 0 0 0 0 0 0 5 5 0 0. 9.
 -11 -1 0 0 0 0 0 0 -4.45794 4.45794 0 0. 9.
 15 1 1 2 0 0 -0.0610051 -3.13512 -2.78346 4.55391 1.7768 0. 1
 -15 1 1 2 0 0 0.0610051 3.13512 3.32553 4.90403 1.7768 0. -1
</event>
<event>
 4 80 1 -1 -1 -1
 11 -1 0 0 0 0 0 0 5 5 0 0. 9.
 -11 -1 0 0 0 0 0 0 -4.99982 4.99982 0 0. 9.
 15 1 1 2 0 0 -0.0926885 -1.82804 4.30021 4.99999 1.7768 0. 1
 -15 1 1 2 0 0 0.0926885 1.82804 -4.30004 4.99984 1.7768 0. -1
</event>
<event>
 4 80 1 -1 -1 -1
 11 -1 0 0 0 0 0 0 5 5 0 0. 9.
 -11 -1 0 0 0 0 0 0 -4.97326 4.97326 0 0. 9.
 15 1 1 2 0 0 -1.21361 -4.31595 -1.25482 4.98323 1.7768 0. 1
 -15 1 1 2 0 0 1.21361 4.31595 1.28156 4.99003 1.7768 0. -1
</event>
<event>
 4 80 1 -1 -1 -1
 11 -1 0 0 0 0 0 0 5 5 0 0. 9.
 -11 -1 0 0 0 0 0 0 -4.83881 4.83881 0 0. 9.
 15 1 1 2 0 0 -4.30472 -0.880326 -1.23514 4.89785 1.7768 0. 1
 -15 1 1 2 0 0 4.30472 0.880326 1.39633 4.94096 1.7768 0. -1
</event>
<event>
 4 80 1 -1 -1 -1
 11 -1 0 0 0 0 0 0 5 5 0 0. 9.
 -11 -1 0 0 0 0 0 0 -4.99989 4.99989 0 0. 9.
 15 1 1 2 0 0 0.692545 -3.83961 2.57289 4.99997 1.7768 0. -1
 -15 1 1 2 0 0 -0.692545 3.83961 -2.57279 4.99992 1.7768 0. 1
</event>
<event>
 4 80 1 -1 -1 -1
 11 -1 0 0 0 0 0 0 5 5 0 0. 9.
 -11 -1 0 0 0 0 0 0 -5 5 0 0. 9.
 15 1 1 2 0 0 4.49886 -0.29502 1.23104 5 1.7768 0. 1
 -15 1 1 2 0 0 -4.49886 0.29502 -1.23105 5 1.7768 0. -1
</event>
<event>
 4 80 1 -1 -1 -1
 11 -1 0 0 0 0 0 0 4.99642 4.99642 0 0. 9.
 -11 -1 0 0 0 0 0 0 -5 5 0 0. 9.
 15 1 1 2 0 0 -1.03619 1.49635 -4.3043 4.99975 1.7768 0. -1
 -15 1 1 2 0 0 1.03619 -1.49635 4.30072 4.99667 1.7768 0. 1
</event>
<event>
 4 80 1 -1 -1 -1
 11 -1 0 0 0 0 0 0 4.8236 4.8236 0 0. 9.
 -11 -1 0 0 0 0 0 0 -5 5 0 0. 9.
 15 1 1 2 0 0 2.51833 0.764009 3.65867 4.84451 1.7768 0. -1
 -15 1 1 2 0 0 -2.51833 -0.764009 -3.83508 4.97908 1.7768 0. 1
</event>
<event>
 4 80 1 -1 -1 -1
 11 -1 0 0 0 0 0 0 5 5 0 0. 9.
 -11 -1 0 0 0 0 0 0 -5 5 0 0. 9.
 15 1 1 2 0 0 -3.17548 2.69289 -2.12295 5 1.7768 0. -1
 -15 1 1 2 0 0 3.17548 -2.69289 2.12295 5 1.7768 0. 1
</event>
<event>
 4 80 1 -1 -1 -1
 11 -1 0 0 0 0 0 0 5 5 0 0. 9.
 -11 -1 0 0 0 0 0 0 -5 5 0 0. 9.
 15 1 1 2 0 0 3.58845 -2.57454 -1.52874 5 1.7768 0. -1
 -15 1 1 2 0 0 -3.58845 2.57454 1.52874 5 1.7768 0. 1
</event>
<event>
 4 80 1 -1 -1 -1
 11 -1 0 0 0 0 0 0 5 5 0 0. 9.
 -11 -1 0 0 0 0 0 0 -5 5 0 0. 9.
 15 1 1 2 0 0 -3.17994 2.10211 -2.70396 5 1.7768 0. -1
 -15 1 1 2 0 0 3.17994 -2.10211 2.70396 5 1.7768 0. 1
</event>
<event>
 4 80 1 -1 -1 -1
 11 -1 0 0 0 0 0 0 4.83807 4.83807 0 0. 9.
 -11 -1 0 0 0 0 0 0 -4.98088 4.98088 0 0. 9.
 15 1 1 2 0 0 1.06076 0.250384 4.37341 4.84483 1.7768 0. 1
 -15 1 1 2 0 0 -1.06076 -0.250384 -4.51622 4.97412 1.7768 0. -1
</event>
<event>
 4 80 1 -1 -1 -1
 11 -1 0 0 0 0 0 0 5 5 0 0. 9.
 -11 -1 0 0 0 0 0 0 -4.99951 4.99951 0 0. 9.
 15 1 1 2 0 0 1.02805 -4.54696 0.329042 4.99977 1.7768 0. -1
 -15 1 1 2 0 0 -1.02805 4.54696 -0.328552 4.99974 1.7768 0. 1
</event>
<event>
 4 80 1 -1 -1 -1
 11 -1 0 0 0 0 0 0 4.17963 4.17963 0 0. 9.
 -11 -1 0 0 0 0 0 0 -4.99841 4.99841 0 0. 9.
 15 1 1 2 0 0 -3.05548 2.42293 -2.00548 4.73141 1.7768 0. -1
 -15 1 1 2 0 0 3.05548 -2.42293 1.1867 4.44663 1.7768 0. 1
</event>
<event>
 4 80 1 -1 -1 -1
 11 -1 0 0 0 0 0 0 5 5 0 0. 9.
 -11 -1 0 0 0 0 0 0 -5 5 0 0. 9.
 15 1 1 2 0 0 3.60104 -1.82747 2.35268 5 1.7768 0. -1
 -15 1 1 2 0 0 -3.60104 1.82747 -2.35268 5 1.7768 0. 1
</event>
<event>
 4 80 1 -1 -1 -1
 11 -1 0 0 0 0 0 0 4.92582 4.92582 0 0. 9.
 -11 -1 0 0 0 0 0 0 -4.9926 4.9926 0 0. 9.
 15 1 1 2 0 0 -0.409268 1.86089 -4.25302 4.98762 1.7768 0. 1
 -15 1 1 2 0 0 0.409268 -1.86089 4.18625 4.9308 1.7768 0. -1
</event>
<event>
 4 80 1 -1 -1 -1
 11 -1 0 0 0 0 0 0 5 5 0 0. 9.
 -11 -1 0 0 0 0 0 0 -4.27514 4.27514 0 0. 9.
 15 1 1 2 0 0 0.420965 -0.554655 4.58642 4.96768 1.7768 0. 1
 -15 1 1 2 0 0 -0.420965 0.554655 -3.86156 4.30746 1.7768 0. -1
</event>
<event>
 4 80 1 -1 -1 -1
 11 -1 0 0 0 0 0 0 5 5 0 0. 9.
 -11 -1 0 0 0 0 0 0 -5 5 0 0. 9.
 15 1 1 2 0 0 3.11602 2.18702 -2.71102 5 1.7768 0. -1
 -15 1 1 2 0 0 -3.11602 -2.18702 2.71102 5 1.7768 0. 1
</event>
<event>
 4 80 1 -1 -1 -1
 11 -1 0 0 0 0 0 0 4.5232 4.5232 0 0. 9.
 -11 -1 0 0 0 0 0 0 -5 5 0 0. 9.
 15 1 1 2 0 0 -2.49896 3.03351 -2.24374 4.862 1.7768 0. 1
 -15 1 1 2 0 0 2.49896 -3.03351 1.76694 4.6612 1.7768 0. -1
</event>
<event>
 4 80 1 -1 -1 -1
 11 -1 0 0 0 0 0 0 0.715378 0.715378 0 0. 9.
 -11 -1 0 0 0 0 0 0 -4.99862 4.99862 0 0. 9.
 15 1 1 2 0 0 -0.422981 0.0611963 -2.87483 3.40662 1.7768 0. -1
 -15 1 1 2 0 0 0.422981 -0.0611963 -1.40841 2.30738 1.7768 0. 1
</event>
<event>
 4 80 1 -1 -1 -1
 11 -1 0 0 0 0 0 0 5 5 0 0. 9.
 -11 -1 0 0 0 0 0 0 -4.9958 4.9958 0 0. 9.
 15 1 1 2 0 0 2.89393 -3.04278 2.04854 4.99876 1.7768 0. -1
 -15 1 1 2 0 0 -2.89393 3.04278 -2.04434 4.99704 1.7768 0. 1
</event>
<event>
 4 80 1 -1 -1 -1
 11 -1 0 0 0 0 0 0 5 5 0 0. 9.
 -11 -1 0 0 0 0 0 0 -4.97805 4.97805 0 0. 9.
 15 1 1 2 0 0 -3.55338 2.86784 0.949845 4.99109 1.7768 0. 1
 -15 1 1 2 0 0 3.55338 -2.86784 -0.927891 4.98696 1.7768 0. -1
</event>
<event>
 4 80 1 -1 -1 -1
 11 -1 0 0 0 0 0 0 4.21416 4.21416 0 0. 9.
 -11 -1 0 0 0 0 0 0 -4.99142 4.99142 0 0. 9.
 15 1 1 2 0 0 2.49314 -3.39038 0.02094 4.56821 1.7768 0. 1
 -15 1 1 2 0 0 -2.49314 3.39038 -0.798198 4.63737 1.7768 0. -1
</event>
<event>
 4 80 1 -1 -1 -1
 11 -1 0 0 0 0 0 0 5 5 0 0. 9.
 -11 -1 0 0 0 0 0 0 -5 5 0 0. 9.
 15 1 1 2 0 0 -0.964084 -3.81197 2.52621 5 1.7768 0. -1
 -15 1 1 2 0 0 0.964084 3.81197 -2.52621 5 1.7768 0. 1
</event>
<event>
 4 80 1 -1 -1 -1
 11 -1 0 0 0 0 0 0 4.99928 4.99928 0 0. 9.
 -11 -1 0 0 0 0 0 0 -5 5 0 0. 9.
 15 1 1 2 0 0 -2.42361 -1.69911 -3.61668 4.9999 1.7768 0. 1
 -15 1 1 2 0 0 2.42361 1.69911 3.61597 4.99938 1.7768 0. -1
</event>
<event>
 4 80 1 -1 -1 -1
 11 -1 0 0 0 0 0 0 5 5 0 0. 9.
 -11 -1 0 0 0 0 0 0 -3.08441 3.08441 0 0. 9.
 15 1 1 2 0 0 -1.05207 -0.762459 -2.38963 3.24904 1.7768 0. 1
 -15 1 1 2 0 0 1.05207 0.762459 4.30522 4.83537 1.7768 0. -1
</event>
<event>
 4 80 1 -1 -1 -1
 11 -1 0 0 0 0 0 0 4.99998 4.99998 0 0. 9.
 -11 -1 0 0 0 0 0 0 -5 5 0 0. 9.
 15 1 1 2 0 0 0.59942 -4.02418 2.29973 4.99998 1.7768 0. -1
 -15 1 1 2 0 0 -0.59942 4.02418 -2.29975 4.99999 1.7768 0. 1
</event>
<event>
 4 80 1 -1 -1 -1
 11 -1 0 0 0 0 0 0 4.30327 4.30327 0 0. 9.
 -11 -1 0 0 0 0 0 0 -4.99997 4.99997 0 0. 9.
 15 1 1 2 0 0 2.04764 3.43666 1.19058 4.53637 1.7768 0. 1
 -15 1 1 2 0 0 -2.04764 -3.43666 -1.88728 4.76687 1.7768 0. -1
</event>
<event>
 4 80 1 -1 -1 -1
 11 -1 0 0 0 0 0 0 3.65805 3.65805 0 0. 9.
 -11 -1 0 0 0 0 0 0 -4.88779 4.88779 0 0. 9.
 15 1 1 2 0 0 3.35883 1.7809 -1.13862 4.34828 1.7768 0. 1
 -15 1 1 2 0 0 -3.35883 -1.7809 -0.0911164 4.19755 1.7768 0. -1
</event>
<event>
 4 80 1 -1 -1 -1
 11 -1 0 0 0 0 0 0 5 5 0 0. 9.
 -11 -1 0 0 0 0 0 0 -4.99565 4.99565 0 0. 9.
 15 1 1 2 0 0 4.45735 -1.18744 0.738757 4.99814 1.7768 0. -1
 -15 1 1 2 0 0 -4.45735 1.18744 -0.734403 4.9975 1.7768 0. 1
</event>
<event>
 4 80 1 -1 -1 -1
 11 -1 0 0 0 0 0 0 5 5 0 0. 9.
 -11 -1 0 0 0 0 0 0 -5 5 0 0. 9.
 15 1 1 2 0 0 1.50964 1.14606 4.27198 5 1.7768 0. -1
 -15 1 1 2 0 0 -1.50964 -1.14606 -4.27198 5 1.7768 0. 1
</event>
<event>
 4 80 1 -1 -1 -1
 11 -1 0 0 0 0 0 0 4.99339 4.99339 0 0. 9.
 -11 -1 0 0 0 0 0 0 -4.99982 4.99982 0 0. 9.
 15 1 1 2 0 0 2.15264 3.88785 -1.43819 4.99753 1.7768 0. -1
 -15 1 1 2 0 0 -2.15264 -3.88785 1.43175 4.99568 1.7768 0. 1
</event>
<event>
 4 80 1 -1 -1 -1
 11 -1 0 0 0 0 0 0 5 5 0 0. 9.
 -11 -1 0 0 0 0 0 0 -5 5 0 0. 9.
 15 1 1 2 0 0 -1.94286 3.721 -2.05469 5 1.7768 0. 1
 -15 1 1 2 0 0 1.94286 -3.721 2.05469 5 1.7768 0. -1
</event>
<event>
 4 80 1 -1 -1 -1
 11 -1 0 0 0 0 0 0 5 5 0 0. 9.
 -11 -1 0 0 0 0 0 0 -4.99999 4.99999 0 0. 9.
 15 1 1 2 0 0 -3.87618 1.40066 -2.20354 4.99999 1.7768 0. 1
 -15 1 1 2 0 0 3.87618 -1.40066 2.20355 5 1.7768 0. -1
</event>
<event>
 4 80 1 -1 -1 -1
 11 -1 0 0 0 0 0 0 5 5 0 0. 9.
 -11 -1 0 0 0 0 0 0 -1.36507 1.36507 0 0. 9.
 15 1 1 2 0 0 0.694256 1.22783 3.39549 4.0837 1.7768 0. 1
 -15 1 1 2 0 0 -0.694256 -1.22783 0.239444 2.28136 1.7768 0. -1
</event>
<event>
 4 80 1 -1 -1 -1
 11 -1 0 0 0 0 0 0 5 5 0 0. 9.
 -11 -1 0 0 0 0 0 0 -4.98067 4.98067 0 0. 9.
 15 1 1 2 0 0 3.50914 3.05149 0.356002 4.99101 1.7768 0. 1
 -15 1 1 2 0 0 -3.50914 -3.05149 -0.336671 4.98966 1.7768 0. -1
</event>
<event>
 4 80 1 -1 -1 -1
 11 -1 0 0 0 0 0 0 2.17246 2.17246 0 0. 9.
 -11 -1 0 0 0 0 0 0 -5 5 0 0. 9.
 15 1 1 2 0 0 -0.303785 -2.73246 -1.82949 3.75012 1.7768 0. -1
 -15 1 1 2 0 0 0.303785 2.73246 -0.998047 3.42234 1.7768 0. 1
</event>
<event>
 4 80 1 -1 -1 -1
 11 -1 0 0 0 0 0 0 5 5 0 0. 9.
 -11 -1 0 0 0 0 0 0 -2.45019 2.45019 0 0. 9.
 15 1 1 2 0 0 0.775862 1.89193 3.63362 4.53236 1.7768 0. 1
 -15 1 1 2 0 0 -0.775862 -1.89193 -1.08381 2.91783 1.7768 0. -1
</event>
<event>
 4 80 1 -1 -1 -1
 11 -1 0 0 0 0 0 0 5 5 0 0. 9.
 -11 -1 0 0 0 0 0 0 -2.19093 2.19093 0 0. 9.
 15 1 1 2 0 0 -2.169 1.36556 2.60815 4.06564 1.7768 0. -1
 -15 1 1 2 0 0 2.169 -1.36556 0.200923 3.12528 1.7768 0. 1
</event>
<event>
 4 80 1 -1 -1 -1
 11 -1 0 0 0 0 0 0 5 5 0 0. 9.
 -11 -1 0 0 0 0 0 0 -4.98869 4.98869 0 0. 9.
 15 1 1 2 0 0 -1.48253 4.40438 -0.429302 4.99385 1.7768 0. -1
 -15 1 1 2 0 0 1.48253 -4.40438 0.440616 4.99484 1.7768 0. 1
</event>
<event>
 4 80 1 -1 -1 -1
 11 -1 0 0 0 0 0 0 5 5 0 0. 9.
 -11 -1 0 0 0 0 0 0 -4.99624 4.99624 0 0. 9.
 15 1 1 2 0 0 3.65781 -1.466 2.51081 4.99906 1.7768 0. -1
 -15 1 1 2 0 0 -3.65781 1.466 -2.50705 4.99717 1.7768 0. 1
</event>
<event>
 4 80 1 -1 -1 -1
 11 -1 0 0 0 0 0 0 5 5 0 0. 9.
 -11 -1 0 0 0 0 0 0 -5 5 0 0. 9.
 15 1 1 2 0 0 1.0401 -1.998 -4.09493 5 1.7768 0. 1
 -15 1 1 2 0 0 -1.0401 1.998 4.09493 5 1.7768 0. -1
</event>
<event>
 4 80 1 -1 -1 -1
 11 -1 0 0 0 0 0 0 4.44011 4.44011 0 0. 9.
 -11 -1 0 0 0 0 0 0 -4.97346 4.97346 0 0. 9.
 15 1 1 2 0 0 -3.81591 -1.11843 1.50049 4.60666 1.7768 0. 1
 -15 1 1 2 0 0 3.81591 1.11843 -2.03384 4.8069 1.7768 0. -1
</event>
<event>
 4 80 1 -1 -1 -1
 11 -1 0 0 0 0 0 0 4.99998 4.99998 0 0. 9.
 -11 -1 0 0 0 0 0 0 -4.99862 4.99862 0 0. 9.
 15 1 1 2 0 0 -1.66462 -0.102944 4.36573 4.99989 1.7768 0. 1
 -15 1 1 2 0 0 1.66462 0.102944 -4.36438 4.99871 1.7768 0. -1
</event>
<event>
 4 80 1 -1 -1 -1
 11 -1 0 0 0 0 0 0 4.94401 4.94401 0 0. 9.
 -11 -1 0 0 0 0 0 0 -5 5 0 0. 9.
 15 1 1 2 0 0 -2.27741 4.01249 0.497039 4.96905 1.7768 0. -1
 -15 1 1 2 0 0 2.27741 -4.01249 -0.553025 4.97496 1.7768 0. 1
</event>
<event>
 4 80 1 -1 -1 -1
 11 -1 0 0 0 0 0 0 5 5 0 0. 9.
 -11 -1 0 0 0 0 0 0 -5 5 0 0. 9.
 15 1 1 2 0 0 -2.37141 1.89231 3.55498 5 1.7768 0. 1
 -15 1 1 2 0 0 2.37141 -1.89231 -3.55498 5 1.7768 0. -1
</event>
<event>
 4 80 1 -1 -1 -1
 11 -1 0 0 0 0 0 0 5 5 0 0. 9.
 -11 -1 0 0 0 0 0 0 -4.93209 4.93209 0 0. 9.
 15 1 1 2 0 0 1.3783 -0.758901 -4.32815 4.93622 1.7768 0. 1
 -15 1 1 2 0 0 -1.3783 0.758901 4.39606 4.99587 1.7768 0. -1
</event>
<event>
 4 80 1 -1 -1 -1
 11 -1 0 0 0 0 0 0 5 5 0 0. 9.
 -11 -1 0 0 0 0 0 0 -4.99998 4.99998 0 0. 9.
 15 1 1 2 0 0 -0.516718 3.24773 3.32077 5 1.7768 0. -1
 -15 1 1 2 0 0 0.516718 -3.24773 -3.32074 4.99998 1.7768 0. 1
</event>
<event>
 4 80 1 -1 -1 -1
 11 -1 0 0 0 0 0 0 5 5 0 0. 9.
 -11 -1 0 0 0 0 0 0 -5 5 0 0. 9.
 15 1 1 2 0 0 0.797104 4.05022 -2.19149 5 1.7768 0. 1
 -15 1 1 2 0 0 -0.797104 -4.05022 2.19149 5 1.7768 0. -1
</event>
<event>
 4 80 1 -1 -1 -1
 11 -1 0 0 0 0 0 0 1.73328 1.73328 0 0. 9.
 -11 -1 0 0 0 0 0 0 -4.99115 4.99115 0 0. 9.
 15 1 1 2 0 0 -2.02893 6.70358e-05 -2.97024 4.01205 1.7768 0. -1
 -15 1 1 2 0 0 2.02893 -6.70358e-05 -0.287631 2.71238 1.7768 0. 1
</event>
<event>
 4 80 1 -1 -1 -1
 11 -1 0 0 0 0 0 0 5 5 0 0. 9.
 -11 -1 0 0 0 0 0 0 -5 5 0 0. 9.
 15 1 1 2 0 0 4.15658 2.13364 -0.112671 5 1.7768 0. 1
 -15 1 1 2 0 0 -4.15658 -2.13364 0.112671 5 1.7768 0. -1
</event>
<event>
 4 80 1 -1 -1 -1
 11 -1 0 0 0 0 0 0 3.02489 3.02489 0 0. 9.
 -11 -1 0 0 0 0 0 0 -1.98913 1.98913 0 0. 9.
 15 1 1 2 0 0 0.868514 -0.894594 -0.649464 2.26587 1.7768 0. 1
 -15 1 1 2 0 0 -0.868514 0.894594 1.68522 2.74815 1.7768 0. -1
</event>
<event>
 4 80 1 -1 -1 -1
 11 -1 0 0 0 0 0 0 4.91312 4.91312 0 0. 9.
 -11 -1 0 0 0 0 0 0 -0.992986 0.992986 0 0. 9.
 15 1 1 2 0 0 0.123452 0.780115 3.36045 3.88255 1.7768 0. 1
 -15 1 1 2 0 0 -0.123452 -0.780115 0.559687 2.02356 1.7768 0. -1
</event>
<event>
 4 80 1 -1 -1 -1
 11 -1 0 0 0 0 0 0 5 5 0 0. 9.
 -11 -1 0 0 0 0 0 0 -5 5 0 0. 9.
 15 1 1 2 0 0 -3.01212 -2.79841 -2.22222 5 1.7768 0. -1
 -15 1 1 2 0 0 3.01212 2.79841 2.22222 5 1.7768 0. 1
</event>
<event>
 4 80 1 -1 -1 -1
 11 -1 0 0 0 0 0 0 4.99973 4.99973 0 0. 9.
 -11 -1 0 0 0 0 0 0 -4.99959 4.99959 0 0. 9.
 15 1 1 2 0 0 -3.44073 -2.27249 2.19919 4.99969 1.7768 0. 1
 -15 1 1 2 0 0 3.44073 2.27249 -2.19904 4.99963 1.7768 0. -1
</event>
<event>
 4 80 1 -1 -1 -1
 11 -1 0 0 0 0 0 0 4.99997 4.99997 0 0. 9.
 -11 -1 0 0 0 0 0 0 -5 5 0 0. 9.
 15 1 1 2 0 0 -1.4264 -4.42673 -0.460034 4.99999 1.7768 0. 1
 -15 1 1 2 0 0 1.4264 4.42673 0.460008 4.99999 1.7768 0. -1
</event>
<event>
 4 80 1 -1 -1 -1
 11 -1 0 0 0 0 0 0 4.57561 4.57561 0 0. 9.
 -11 -1 0 0 0 0 0 0 -4.99204 4.99204 0 0. 9.
 15 1 1 2 0 0 -0.407367 -0.689176 -4.57618 4.97394 1.7768 0. 1
 -15 1 1 2 0 0 0.407367 0.689176 4.15975 4.59371 1.7768 0. -1
</event>
<event>
 4 80 1 -1 -1 -1
 11 -1 0 0 0 0 0 0 5 5 0 0. 9.
 -11 -1 0 0 0 0 0 0 -4.96011 4.96011 0 0. 9.
 15 1 1 2 0 0 -0.0910577 -1.74871 4.33003 4.99732 1.7768 0. 1
 -15 1 1 2 0 0 0.0910577 1.74871 -4.29014 4.96279 1.7768 0. -1
</event>
<event>
 4 80 1 -1 -1 -1
 11 -1 0 0 0 0 0 0 4.7687 4.7687 0 0. 9.
 -11 -1 0 0 0 0 0 0 -5 5 0 0. 9.
 15 1 1 2 0 0 -3.35844 -2.06323 -2.38558 4.9381 1.7768 0. -1
 -15 1 1 2 0 0 3.35844 2.06323 2.15428 4.8306 1.7768 0. 1
</event>
<event>
 4 80 1 -1 -1 -1
 11 -1 0 0 0 0 0 0 5 5 0 0. 9.
 -11 -1 0 0 0 0 0 0 -5 5 0 0. 9.
 15 1 1 2 0 0 -0.218118 2.16288 4.13723 5 1.7768 0. 1
 -15 1 1 2 0 0 0.218118 -2.16288 -4.13723 5 1.7768 0. -1
</event>
<event>
 4 80 1 -1 -1 -1
 11 -1 0 0 0 0 0 0 5 5 0 0. 9.
 -11 -1 0 0 0 0 0 0 -5 5 0 0. 9.
 15 1 1 2 0 0 1.36379 -2.56103 -3.66381 5 1.7768 0. 1
 -15 1 1 2 0 0 -1.36379 2.56103 3.66381 5 1.7768 0. -1
</event>
<event>
 4 80 1 -1 -1 -1
 11 -1 0 0 0 0 0 0 4.91277 4.91277 0 0. 9.
 -11 -1 0 0 0 0 0 0 -5 5 0 0. 9.
 15 1 1 2 0 0 1.08309 -3.62417 2.62078 4.93294 1.7768 0. 1
 -15 1 1 2 0 0 -1.08309 3.62417 -2.708 4.97983 1.7768 0. -1
</event>
<event>
 4 80 1 -1 -1 -1
 11 -1 0 0 0 0 0 0 5 5 0 0. 9.
 -11 -1 0 0 0 0 0 0 -5 5 0 0. 9.
 15 1 1 2 0 0 3.20893 2.39913 -2.40607 5 1.7768 0. 1
 -15 1 1 2 0 0 -3.20893 -2.39913 2.40607 5 1.7768 0. -1
</event>
<event>
 4 80 1 -1 -1 -1
 11 -1 0 0 0 0 0 0 5 5 0 0. 9.
 -11 -1 0 0 0 0 0 0 -5 5 0 0. 9.
 15 1 1 2 0 0 0.0415757 2.03785 -4.20568 5 1.7768 0. 1
 -15 1 1 2 0 0 -0.0415757 -2.03785 4.20568 5 1.7768 0. -1
</event>
<event>
 4 80 1 -1 -1 -1
 11 -1 0 0 0 0 0 0 5 5 0 0. 9.
 -11 -1 0 0 0 0 0 0 -5 5 0 0. 9.
 15 1 1 2 0 0 -1.96617 -0.0883399 4.23894 5 1.7768 0. 1
 -15 1 1 2 0 0 1.96617 0.0883399 -4.23894 5 1.7768 0. -1
</event>
<event>
 4 80 1 -1 -1 -1
 11 -1 0 0 0 0 0 0 5 5 0 0. 9.
 -11 -1 0 0 0 0 0 0 -5 5 0 0. 9.
 15 1 1 2 0 0 3.41866 -0.917872 -3.05165 5 1.7768 0. 1
 -15 1 1 2 0 0 -3.41866 0.917872 3.05165 5 1.7768 0. -1
</event>
<event>
 4 80 1 -1 -1 -1
 11 -1 0 0 0 0 0 0 5 5 0 0. 9.
 -11 -1 0 0 0 0 0 0 -5 5 0 0. 9.
 15 1 1 2 0 0 -4.37386 -1.41712 -0.838675 5 1.7768 0. 1
 -15 1 1 2 0 0 4.37386 1.41712 0.838675 5 1.7768 0. -1
</event>
<event>
 4 80 1 -1 -1 -1
 11 -1 0 0 0 0 0 0 5 5 0 0. 9.
 -11 -1 0 0 0 0 0 0 -5 5 0 0. 9.
 15 1 1 2 0 0 -2.77832 1.68807 3.35762 5 1.7768 0. -1
 -15 1 1 2 0 0 2.77832 -1.68807 -3.35761 5 1.7768 0. 1
</event>
<event>
 4 80 1 -1 -1 -1
 11 -1 0 0 0 0 0 0 4.99887 4.99887 0 0. 9.
 -11 -1 0 0 0 0 0 0 -5 5 0 0. 9.
 15 1 1 2 0 0 3.22559 2.12328 2.63076 4.99914 1.7768 0. -1
 -15 1 1 2 0 0 -3.22559 -2.12328 -2.63189 4.99973 1.7768 0. 1
</event>
<event>
 4 80 1 -1 -1 -1
 11 -1 0 0 0 0 0 0 4.99989 4.99989 0 0. 9.
 -11 -1 0 0 0 0 0 0 -4.99812 4.99812 0 0. 9.
 15 1 1 2 0 0 -0.860618 -1.99224 4.13884 4.99974 1.7768 0. 1
 -15 1 1 2 0 0 0.860618 1.99224 -4.13707 4.99827 1.7768 0. -1
</event>
<event>
 4 80 1 -1 -1 -1
 11 -1 0 0 0 0 0 0 5 5 0 0. 9.
 -11 -1 0 0 0 0 0 0 -4.94212 4.94212 0 0. 9.
 15 1 1 2 0 0 -4.3277 -1.53194 -0.66173 4.96704 1.7768 0. -1
 -15 1 1 2 0 0 4.3277 1.53194 0.719614 4.97508 1.7768 0. 1
</event>
<event>
 4 80 1 -1 -1 -1
 11 -1 0 0 0 0 0 0 4.93963 4.93963 0 0. 9.
 -11 -1 0 0 0 0 0 0 -5 5 0 0. 9.
 15 1 1 2 0 0 -0.194032 2.55846 3.83732 4.94632 1.7768 0. 1
 -15 1 1 2 0 0 0.194032 -2.55846 -3.89769 4.9933 1.7768 0. -1
</event>
<event>
 4 80 1 -1 -1 -1
 11 -1 0 0 0 0 0 0 4.99974 4.99974 0 0. 9.
 -11 -1 0 0 0 0 0 0 -4.99945 4.99945 0 0. 9.
 15 1 1 2 0 0 1.3786 3.33793 2.96593 4.99968 1.7768 0. -1
 -15 1 1 2 0 0 -1.3786 -3.33793 -2.96564 4.99951 1.7768 0. 1
</event>
<event>
 4 80 1 -1 -1 -1
 11 -1 0 0 0 0 0 0 5 5 0 0. 9.
 -11 -1 0 0 0 0 0 0 -3.29745 3.29745 0 0. 9.
 15 1 1 2 0 0 -3.24864 1.61792 1.25766 4.23211 1.7768 0. -1
 -15 1 1 2 0 0 3.24864 -1.61792 0.44489 4.06534 1.7768 0. 1
</event>
<event>
 4 80 1 -1 -1 -1
 11 -1 0 0 0 0 0 0 5 5 0 0. 9.
 -11 -1 0 0 0 0 0 0 -4.83907 4.83907 0 0. 9.
 15 1 1 2 0 0 3.75602 1.6958 2.09425 4.95247 1.7768 0. 1
 -15 1 1 2 0 0 -3.75602 -1.6958 -1.93332 4.8866 1.7768 0. -1
</event>
<event>
 4 80 1 -1 -1 -1
 11 -1 0 0 0 0 0 0 2.81864 2.81864 0 0. 9.
 -11 -1 0 0 0 0 0 0 -5 5 0 0. 9.
 15 1 1 2 0 0 -2.3258 1.37447 0.895257 3.35525 1.7768 0. 1
 -15 1 1 2 0 0 2.3258 -1.37447 -3.07662 4.46339 1.7768 0. -1
</event>
<event>
 4 80 1 -1 -1 -1
 11 -1 0 0 0 0 0 0 5 5 0 0. 9.
 -11 -1 0 0 0 0 0 0 -5 5 0 0. 9.
 15 1 1 2 0 0 -3.94145 2.30817 -0.98974 5 1.7768 0. -1
 -15 1 1 2 0 0 3.94145 -2.30817 0.989744 5 1.7768 0. 1
</event>
<event>
 4 80 1 -1 -1 -1
 11 -1 0 0 0 0 0 0 4.99184 4.99184 0 0. 9.
 -11 -1 0 0 0 0 0 0 -4.99937 4.99937 0 0. 9.
 15 1 1 2 0 0 2.20244 3.29699 -2.469 4.99746 1.7768 0. 1
 -15 1 1 2 0 0 -2.20244 -3.29699 2.46147 4.99374 1.7768 0. -1
</event>
<event>
 4 80 1 -1 -1 -1
 11 -1 0 0 0 0 0 0 2.43461 2.43461 0 0. 9.
 -11 -1 0 0 0 0 0 0 -5 5 0 0. 9.
 15 1 1 2 0 0 1.81237 2.00703 0.107473 3.23761 1.7768 0. 1
 -15 1 1 2 0 0 -1.81237 -2.00703 -2.67286 4.197 1.7768 0. -1
</event>
<event>
 4 80 1 -1 -1 -1
 11 -1 0 0 0 0 0 0 4.98819 4.98819 0 0. 9.
 -11 -1 0 0 0 0 0 0 -4.18096 4.18096 0 0. 9.
 15 1 1 2 0 0 -3.10216 -2.64594 -0.636439 4.49301 1.7768 0. -1
 -15 1 1 2 0 0 3.10216 2.64594 1.44367 4.67614 1.7768 0. 1
</event>
<event>
 4 80 1 -1 -1 -1
 11 -1 0 0 0 0 0 0 5 5 0 0. 9.
 -11 -1 0 0 0 0 0 0 -2.63409 2.63409 0 0. 9.
 15 1 1 2 0 0 1.60392 1.74505 3.38793 4.5004 1.7768 0. -1
 -15 1 1 2 0 0 -1.60392 -1.74505 -1.02202 3.13369 1.7768 0. 1
</event>
<event>
 4 80 1 -1 -1 -1
 11 -1 0 0 0 0 0 0 5 5 0 0. 9.
 -11 -1 0 0 0 0 0 0 -4.98477 4.98477 0 0. 9.
 15 1 1 2 0 0 0.896175 -2.149 4.05049 4.99855 1.7768 0. 1
 -15 1 1 2 0 0 -0.896175 2.149 -4.03525 4.98622 1.7768 0. -1
</event>
<event>
 4 80 1 -1 -1 -1
 11 -1 0 0 0 0 0 0 4.99588 4.99588 0 0. 9.
 -11 -1 0 0 0 0 0 0 -5 5 0 0. 9.
 15 1 1 2 0 0 1.11525 4.41233 -1.05525 4.99838 1.7768 0. 1
 -15 1 1 2 0 0 -1.11525 -4.41233 1.05114 4.99751 1.7768 0. -1
</event>
<event>
 4 80 1 -1 -1 -1
 11 -1 0 0 0 0 0 0 5 5 0 0. 9.
 -11 -1 0 0 0 0 0 0 -4.97551 4.97551 0 0. 9.
 15 1 1 2 0 0 4.18146 -0.267592 -2.02826 4.98275 1.7768 0. 1
 -15 1 1 2 0 0 -4.18146 0.267592 2.05275 4.99277 1.7768 0. -1
</event>
<event>
 4 80 1 -1 -1 -1
 11 -1 0 0 0 0 0 0 4.67374 4.67374 0 0. 9.
 -11 -1 0 0 0 0 0 0 -4.76432 4.76432 0 0. 9.
 15 1 1 2 0 0 -3.11361 0.390104 -3.0889 4.74824 1.7768 0. -1
 -15 1 1 2 0 0 3.11361 -0.390104 2.99832 4.68982 1.7768 0. 1
</event>
<event>
 4 80 1 -1 -1 -1
 11 -1 0 0 0 0 0 0 5 5 0 0. 9.
 -11 -1 0 0 0 0 0 0 -4.04824 4.04824 0 0. 9.
 15 1 1 2 0 0 0.501476 1.15111 -3.48397 4.10759 1.7768 0. -1
 -15 1 1 2 0 0 -0.501476 -1.15111 4.43573 4.94065 1.7768 0. 1
</event>
<event>
 4 80 1 -1 -1 -1
 11 -1 0 0 0 0 0 0 4.98656 4.98656 0 0. 9.
 -11 -1 0 0 0 0 0 0 -4.99912 4.99912 0 0. 9.
 15 1 1 2 0 0 4.497 1.19483 -0.352807 4.99328 1.7768 0. 1
 -15 1 1 2 0 0 -4.497 -1.19483 0.340253 4.99241 1.7768 0. -1
</event>
<event>
 4 80 1 -1 -1 -1
 11 -1 0 0 0 0 0 0 5 5 0 0. 9.
 -11 -1 0 0 0 0 0 0 -5 5 0 0. 9.
 15 1 1 2 0 0 -2.35666 -1.70756 3.65686 5 1.7768 0. -1
 -15 1 1 2 0 0 2.35666 1.70756 -3.65686 5 1.7768 0. 1
</event>
<event>
 4 80 1 -1 -1 -1
 11 -1 0 0 0 0 0 0 5 5 0 0. 9.
 -11 -1 0 0 0 0 0 0 -5 5 0 0. 9.
 15 1 1 2 0 0 -3.00077 1.1091 3.40699 5 1.7768 0. 1
 -15 1 1 2 0 0 3.00077 -1.1091 -3.40699 5 1.7768 0. -1
</event>
<event>
 4 80 1 -1 -1 -1
 11 -1 0 0 0 0 0 0 5 5 0 0. 9.
 -11 -1 0 0 0 0 0 0 -5 5 0 0. 9.
 15 1 1 2 0 0 0.487917 1.51341 -4.39475 5 1.7768 0. 1
 -15 1 1 2 0 0 -0.487917 -1.51341 4.39475 5 1.7768 0. -1
</event>
<event>
 4 80 1 -1 -1 -1
 11 -1 0 0 0 0 0 0 4.09018 4.09018 0 0. 9.
 -11 -1 0 0 0 0 0 0 -5 5 0 0. 9.
 15 1 1 2 0 0 3.22946 -1.93981 -2.22473 4.72223 1.7768 0. -1
 -15 1 1 2 0 0 -3.22946 1.93981 1.31491 4.36795 1.7768 0. 1
</event>
<event>
 4 80 1 -1 -1 -1
 11 -1 0 0 0 0 0 0 5 5 0 0. 9.
 -11 -1 0 0 0 0 0 0 -5 5 0 0. 9.
 15 1 1 2 0 0 -0.0271296 2.32413 -4.05462 5 1.7768 0. 1
 -15 1 1 2 0 0 0.0271296 -2.32413 4.05462 5 1.7768 0. -1
</event>
<event>
 4 80 1 -1 -1 -1
 11 -1 0 0 0 0 0 0 4.99657 4.99657 0 0. 9.
 -11 -1 0 0 0 0 0 0 -5 5 0 0. 9.
 15 1 1 2 0 0 -1.77283 -0.945044 4.216 4.99684 1.7768 0. 1
 -15 1 1 2 0 0 1.77283 0.945044 -4.21943 4.99973 1.7768 0. -1
</event>
<event>
 4 80 1 -1 -1 -1
 11 -1 0 0 0 0 0 0 4.96693 4.96693 0 0. 9.
 -11 -1 0 0 0 0 0 0 -5 5 0 0. 9.
 15 1 1 2 0 0 -1.98156 2.02017 3.68068 4.9712 1.7768 0. -1
 -15 1 1 2 0 0 1.98156 -2.02017 -3.71375 4.99573 1.7768 0. 1
</event>
<event>
 4 80 1 -1 -1 -1
 11 -1 0 0 0 0 0 0 4.99998 4.99998 0 0. 9.
 -11 -1 0 0 0 0 0 0 -5 5 0 0. 9.
 15 1 1 2 0 0 -2.93765 3.34218 1.42907 4.99999 1.7768 0. -1
 -15 1 1 2 0 0 2.93765 -3.34218 -1.42908 4.99999 1.7768 0. 1
</event>
<event>
 4 80 1 -1 -1 -1
 11 -1 0 0 0 0 0 0 5 5 0 0. 9.
 -11 -1 0 0 0 0 0 0 -4.90565 4.90565 0 0. 9.
 15 1 1 2 0 0 -4.34016 -1.59164 0.0595464 4.95294 1.7768 0. 1
 -15 1 1 2 0 0 4.34016 1.59164 0.0348063 4.9527 1.7768 0. -1
</event>
<event>
 4 80 1 -1 -1 -1
 11 -1 0 0 0 0 0 0 5 5 0 0. 9.
 -11 -1 0 0 0 0 0 0 -5 5 0 0. 9.
 15 1 1 2 0 0 0.610063 1.37205 -4.42579 5 1.7768 0. -1
 -15 1 1 2 0 0 -0.610063 -1.37205 4.42579 5 1.7768 0. 1
</event>
<event>
 4 80 1 -1 -1 -1
 11 -1 0 0 0 0 0 0 4.38278 4.38278 0 0. 9.
 -11 -1 0 0 0 0 0 0 -5 5 0 0. 9.
 15 1 1 2 0 0 -1.58727 -0.609248 3.6832 4.4288 1.7768 0. -1
 -15 1 1 2 0 0 1.58727 0.609248 -4.30042 4.95398 1.7768 0. 1
</event>
<event>
 4 80 1 -1 -1 -1
 11 -1 0 0 0 0 0 0 5 5 0 0. 9.
 -11 -1 0 0 0 0 0 0 -5 5 0 0. 9.
 15 1 1 2 0 0 -0.49754 0.812078 4.57551 5 1.7768 0. 1
 -15 1 1 2 0 0 0.49754 -0.812078 -4.57551 5 1.7768 0. -1
</event>
<event>
 4 80 1 -1 -1 -1
 11 -1 0 0 0 0 0 0 4.99979 4.99979 0 0. 9.
 -11 -1 0 0 0 0 0 0 -5 5 0 0. 9.
 15 1 1 2 0 0 -4.54865 -0.602163 0.887801 4.99988 1.7768 0. -1
 -15 1 1 2 0 0 4.54865 0.602163 -0.888011 4.99991 1.7768 0. 1
</event>
<event>
 4 80 1 -1 -1 -1
 11 -1 0 0 0 0 0 0 5 5 0 0. 9.
 -11 -1 0 0 0 0 0 0 -5 5 0 0. 9.
 15 1 1 2 0 0 3.04344 -3.21862 1.49005 5 1.7768 0. 1
 -15 1 1 2 0 0 -3.04344 3.21862 -1.49005 5 1.7768 0. -1
</event>
<event>
 4 80 1 -1 -1 -1
 11 -1 0 0 0 0 0 0 5 5 0 0. 9.
 -11 -1 0 0 0 0 0 0 -5 5 0 0. 9.
 15 1 1 2 0 0 -4.3512 1.60265 0.583818 5 1.7768 0. 1
 -15 1 1 2 0 0 4.3512 -1.60265 -0.583818 5 1.7768 0. -1
</event>
<event>
 4 80 1 -1 -1 -1
 11 -1 0 0 0 0 0 0 4.98925 4.98925 0 0. 9.
 -11 -1 0 0 0 0 0 0 -4.99991 4.99991 0 0. 9.
 15 1 1 2 0 0 1.67363 0.312625 4.34085 4.98994 1.7768 0. -1
 -15 1 1 2 0 0 -1.67363 -0.312625 -4.35151 4.99922 1.7768 0. 1
</event>
<event>
 4 80 1 -1 -1 -1
 11 -1 0 0 0 0 0 0 3.06388 3.06388 0 0. 9.
 -11 -1 0 0 0 0 0 0 -5 5 0 0. 9.
 15 1 1 2 0 0 -2.24949 1.36646 1.38873 3.46608 1.7768 0. 1
 -15 1 1 2 0 0 2.24949 -1.36646 -3.32485 4.5978 1.7768 0. -1
</event>
<event>
 4 80 1 -1 -1 -1
 11 -1 0 0 0 0 0 0 4.89836 4.89836 0 0. 9.
 -11 -1 0 0 0 0 0 0 -5 5 0 0. 9.
 15 1 1 2 0 0 4.12919 0.835978 1.8427 4.92974 1.7768 0. -1
 -15 1 1 2 0 0 -4.12919 -0.835978 -1.94433 4.96862 1.7768 0. 1
</event>
<event>
 4 80 1 -1 -1 -1
 11 -1 0 0 0 0 0 0 5 5 0 0. 9.
 -11 -1 0 0 0 0 0 0 -5 5 0 0. 9.
 15 1 1 2 0 0 -1.69163 3.44153 -2.67142 5 1.7768 0. 1
 -15 1 1 2 0 0 1.69163 -3.44153 2.67142 5 1.7768 0. -1
</event>
<event>
 4 80 1 -1 -1 -1
 11 -1 0 0 0 0 0 0 5 5 0 0. 9.
 -11 -1 0 0 0 0 0 0 -4.99668 4.99668 0 0. 9.
 15 1 1 2 0 0 1.8975 0.00933202 4.27074 4.99976 1.7768 0. -1
 -15 1 1 2 0 0 -1.8975 -0.00933202 -4.26743 4.99693 1.7768 0. 1
</event>
<event>
 4 80 1 -1 -1 -1
 11 -1 0 0 0 0 0 0 5 5 0 0. 9.
 -11 -1 0 0 0 0 0 0 -5 5 0 0. 9.
 15 1 1 2 0 0 -1.08344 -3.27638 3.15179 5 1.7768 0. 1
 -15 1 1 2 0 0 1.08344 3.27638 -3.15179 5 1.7768 0. -1
</event>
<event>
 4 80 1 -1 -1 -1
 11 -1 0 0 0 0 0 0 4.99817 4.99817 0 0. 9.
 -11 -1 0 0 0 0 0 0 -5 5 0 0. 9.
 15 1 1 2 0 0 3.25579 -2.06487 -2.64086 4.99957 1.7768 0. 1
 -15 1 1 2 0 0 -3.25579 2.06487 2.63903 4.9986 1.7768 0. -1
</event>
<event>
 4 80 1 -1 -1 -1
 11 -1 0 0 0 0 0 0 4.99989 4.99989 0 0. 9.
 -11 -1 0 0 0 0 0 0 -5 5 0 0. 9.
 15 1 1 2 0 0 0.834588 -0.341145 4.58566 4.99989 1.7768 0. 1
 -15 1 1 2 0 0 -0.834588 0.341145 -4.58577 5 1.7768 0. -1
</event>
<event>
 4 80 1 -1 -1 -1
 11 -1 0 0 0 0 0 0 4.99998 4.99998 0 0. 9.
 -11 -1 0 0 0 0 0 0 -5 5 0 0. 9.
 15 1 1 2 0 0 2.38567 3.15459 -2.48985 4.99999 1.7768 0. -1
 -15 1 1 2 0 0 -2.38567 -3.15459 2.48983 4.99998 1.7768 0. 1
</event>
<event>
 4 80 1 -1 -1 -1
 11 -1 0 0 0 0 0 0 4.88032 4.88032 0 0. 9.
 -11 -1 0 0 0 0 0 0 -5 5 0 0. 9.
 15 1 1 2 0 0 -1.33519 4.26657 -1.18132 4.95374 1.7768 0. -1
 -15 1 1 2 0 0 1.33519 -4.26657 1.06164 4.92657 1.7768 0. 1
</event>
<event>
 4 80 1 -1 -1 -1
 11 -1 0 0 0 0 0 0 4.99183 4.99183 0 0. 9.
 -11 -1 0 0 0 0 0 0 -4.99982 4.99982 0 0. 9.
 15 1 1 2 0 0 1.26726 3.71154 -2.53759 4.99785 1.7768 0. 1
 -15 1 1 2 0 0 -1.26726 -3.71154 2.5296 4.9938 1.7768 0. -1
</event>
<event>
 4 80 1 -1 -1 -1
 11 -1 0 0 0 0 0 0 4.9874 4.9874 0 0. 9.
 -11 -1 0 0 0 0 0 0 -4.96587 4.96587 0 0. 9.
 15 1 1 2 0 0 -1.68123 2.86656 3.2612 4.98366 1.7768 0. -1
 -15 1 1 2 0 0 1.68123 -2.86656 -3.23967 4.9696 1.7768 0. 1
</event>
<event>
 4 80 1 -1 -1 -1
 11 -1 0 0 0 0 0 0 4.99062 4.99062 0 0. 9.
 -11 -1 0 0 0 0 0 0 -2.91031 2.91031 0 0. 9.
 15 1 1 2 0 0 1.3963 -1.32182 -1.83055 3.19461 1.7768 0. -1
 -15 1 1 2 0 0 -1.3963 1.32182 3.91086 4.70632 1.7768 0. 1
</event>
<event>
 4 80 1 -1 -1 -1
 11 -1 0 0 0 0 0 0 5 5 0 0. 9.
 -11 -1 0 0 0 0 0 0 -4.91661 4.91661 0 0. 9.
 15 1 1 2 0 0 -1.13545 -2.58333 -3.62756 4.92745 1.7768 0. -1
 -15 1 1 2 0 0 1.13545 2.58333 3.71095 4.98916 1.7768 0. 1
</event>
<event>
 4 80 1 -1 -1 -1
 11 -1 0 0 0 0 0 0 4.9805 4.9805 0 0. 9.
 -11 -1 0 0 0 0 0 0 -5 5 0 0. 9.
 15 1 1 2 0 0 0.337782 -4.21922 1.94698 4.98642 1.7768 0. 1
 -15 1 1 2 0 0 -0.337782 4.21922 -1.96649 4.99407 1.7768 0. -1
</event>
<event>
 4 80 1 -1 -1 -1
 11 -1 0 0 0 0 0 0 5 5 0 0. 9.
 -11 -1 0 0 0 0 0 0 -5 5 0 0. 9.
 15 1 1 2 0 0 -2.59265 1.74175 -3.47659 5 1.7768 0. -1
 -15 1 1 2 0 0 2.59265 -1.74175 3.47659 5 1.7768 0. 1
</event>
<event>
 4 80 1 -1 -1 -1
 11 -1 0 0 0 0 0 0 4.99898 4.99898 0 0. 9.
 -11 -1 0 0 0 0 0 0 -5 5 0 0. 9.
 15 1 1 2 0 0 1.84942 4.16681 -1.02739 4.9996 1.7768 0. 1
 -15 1 1 2 0 0 -1.84942 -4.16681 1.02637 4.99939 1.7768 0. -1
</event>
<event>
 4 80 1 -1 -1 -1
 11 -1 0 0 0 0 0 0 5 5 0 0. 9.
 -11 -1 0 0 0 0 0 0 -5 5 0 0. 9.
 15 1 1 2 0 0 1.44774 -1.02789 4.32317 5 1.7768 0. -1
 -15 1 1 2 0 0 -1.44774 1.02789 -4.32317 5 1.7768 0. 1
</event>
<event>
 4 80 1 -1 -1 -1
 11 -1 0 0 0 0 0 0 4.99765 4.99765 0 0. 9.
 -11 -1 0 0 0 0 0 0 -4.99971 4.99971 0 0. 9.
 15 1 1 2 0 0 2.45394 0.255048 -3.96868 4.9995 1.7768 0. -1
 -15 1 1 2 0 0 -2.45394 -0.255048 3.96662 4.99787 1.7768 0. 1
</event>
<event>
 4 80 1 -1 -1 -1
 11 -1 0 0 0 0 0 0 5 5 0 0. 9.
 -11 -1 0 0 0 0 0 0 -5 5 0 0. 9.
 15 1 1 2 0 0 0.0809712 4.34418 1.72157 5 1.7768 0. 1
 -15 1 1 2 0 0 -0.0809712 -4.34418 -1.72157 5 1.7768 0. -1
</event>
<event>
 4 80 1 -1 -1 -1
 11 -1 0 0 0 0 0 0 2.90695 2.90695 0 0. 9.
 -11 -1 0 0 0 0 0 0 -5 5 0 0. 9.
 15 1 1 2 0 0 -2.11245 -1.77756 0.962896 3.42156 1.7768 0. -1
 -15 1 1 2 0 0 2.11245 1.77756 -3.05595 4.48539 1.7768 0. 1
</event>
<event>
 4 80 1 -1 -1 -1
 11 -1 0 0 0 0 0 0 5 5 0 0. 9.
 -11 -1 0 0 0 0 0 0 -5 5 0 0. 9.
 15 1 1 2 0 0 4.41011 0.211697 1.53244 5 1.7768 0. -1
 -15 1 1 2 0 0 -4.41011 -0.211697 -1.53245 5 1.7768 0. 1
</event>
<event>
 4 80 1 -1 -1 -1
 11 -1 0 0 0 0 0 0 5 5 0 0. 9.
 -11 -1 0 0 0 0 0 0 -5 5 0 0. 9.
 15 1 1 2 0 0 4.17245 -2.0961 -0.198255 5 1.7768 0. 1
 -15 1 1 2 0 0 -4.17245 2.0961 0.198255 5 1.7768 0. -1
</event>
<event>
 4 80 1 -1 -1 -1
 11 -1 0 0 0 0 0 0 5 5 0 0. 9.
 -11 -1 0 0 0 0 0 0 -4.99998 4.99998 0 0. 9.
 15 1 1 2 0 0 0.706727 0.837117 -4.54333 4.99998 1.7768 0. -1
 -15 1 1 2 0 0 -0.706727 -0.837117 4.54335 5 1.7768 0. 1
</event>
<event>
 4 80 1 -1 -1 -1
 11 -1 0 0 0 0 0 0 4.98338 4.98338 0 0. 9.
 -11 -1 0 0 0 0 0 0 -4.99981 4.99981 0 0. 9.
 15 1 1 2 0 0 0.263897 -4.55423 -0.981656 4.9932 1.7768 0. 1
 -15 1 1 2 0 0 -0.263897 4.55423 0.965222 4.99 1.7768 0. -1
</event>
<event>
 4 80 1 -1 -1 -1
 11 -1 0 0 0 0 0 0 4.99813 4.99813 0 0. 9.
 -11 -1 0 0 0 0 0 0 -4.54989 4.54989 0 0. 9.
 15 1 1 2 0 0 4.06933 1.39089 1.26892 4.82306 1.7768 0. -1
 -15 1 1 2 0 0 -4.06933 -1.39089 -0.820687 4.72496 1.7768 0. 1
</event>
<event>
 4 80 1 -1 -1 -1
 11 -1 0 0 0 0 0 0 5 5 0 0. 9.
 -11 -1 0 0 0 0 0 0 -5 5 0 0. 9.
 15 1 1 2 0 0 2.28213 -0.978392 3.95941 5 1.7768 0. -1
 -15 1 1 2 0 0 -2.28213 0.978392 -3.95941 5 1.7768 0. 1
</event>
<event>
 4 80 1 -1 -1 -1
 11 -1 0 0 0 0 0 0 5 5 0 0. 9.
 -11 -1 0 0 0 0 0 0 -4.9998 4.9998 0 0. 9.
 15 1 1 2 0 0 1.78594 4.30841 -0.298599 4.99989 1.7768 0. 1
 -15 1 1 2 0 0 -1.78594 -4.30841 0.298804 4.9999 1.7768 0. -1
</event>
<event>
 4 80 1 -1 -1 -1
 11 -1 0 0 0 0 0 0 4.99364 4.99364 0 0. 9.
 -11 -1 0 0 0 0 0 0 -5 5 0 0. 9.
 15 1 1 2 0 0 -1.81573 0.123185 4.2978 4.99409 1.7768 0. 1
 -15 1 1 2 0 0 1.81573 -0.123185 -4.30416 4.99956 1.7768 0. -1
</event>
<event>
 4 80 1 -1 -1 -1
 11 -1 0 0 0 0 0 0 5 5 0 0. 9.
 -11 -1 0 0 0 0 0 0 -5 5 0 0. 9.
 15 1 1 2 0 0 -1.24903 -4.47473 -0.508882 5 1.7768 0. 1
 -15 1 1 2 0 0 1.24903 4.47473 0.508882 5 1.7768 0. -1
</event>
<event>
 4 80 1 -1 -1 -1
 11 -1 0 0 0 0 0 0 2.44358 2.44358 0 0. 9.
 -11 -1 0 0 0 0 0 0 -5 5 0 0. 9.
 15 1 1 2 0 0 -2.7336 -1.18508 -1.73392 3.8783 1.7768 0. 1
 -15 1 1 2 0 0 2.7336 1.18508 -0.822501 3.56528 1.7768 0. -1
</event>
<event>
 4 80 1 -1 -1 -1
 11 -1 0 0 0 0 0 0 5 5 0 0. 9.
 -11 -1 0 0 0 0 0 0 -4.99996 4.99996 0 0. 9.
 15 1 1 2 0 0 -1.66991 -4.32175 -0.613177 4.99998 1.7768 0. 1
 -15 1 1 2 0 0 1.66991 4.32175 0.613215 4.99998 1.7768 0. -1
</event>
<event>
 4 80 1 -1 -1 -1
 11 -1 0 0 0 0 0 0 5 5 0 0. 9.
 -11 -1 0 0 0 0 0 0 -5 5 0 0. 9.
 15 1 1 2 0 0 1.83402 4.27451 0.455184 5 1.7768 0. -1
 -15 1 1 2 0 0 -1.83402 -4.27451 -0.455184 5 1.7768 0. 1
</event>
<event>
 4 80 1 -1 -1 -1
 11 -1 0 0 0 0 0 0 5 5 0 0. 9.
 -11 -1 0 0 0 0 0 0 -5 5 0 0. 9.
 15 1 1 2 0 0 -0.31825 0.742065 4.6033 5 1.7768 0. 1
 -15 1 1 2 0 0 0.31825 -0.742065 -4.6033 5 1.7768 0. -1
</event>
<event>
 4 80 1 -1 -1 -1
 11 -1 0 0 0 0 0 0 5 5 0 0. 9.
 -11 -1 0 0 0 0 0 0 -4.99052 4.99052 0 0. 9.
 15 1 1 2 0 0 -1.51722 -0.989058 4.30761 4.99934 1.7768 0. 1
 -15 1 1 2 0 0 1.51722 0.989058 -4.29814 4.99118 1.7768 0. -1
</event>
<event>
 4 80 1 -1 -1 -1
 11 -1 0 0 0 0 0 0 1.79287 1.79287 0 0. 9.
 -11 -1 0 0 0 0 0 0 -5 5 0 0. 9.
 15 1 1 2 0 0 -1.42492 0.811637 -3.60649 4.34208 1.7768 0. 1
 -15 1 1 2 0 0 1.42492 -0.811637 0.399354 2.45079 1.7768 0. -1
</event>
<event>
 4 80 1 -1 -1 -1
 11 -1 0 0 0 0 0 0 4.99999 4.99999 0 0. 9.
 -11 -1 0 0 0 0 0 0 -5 5 0 0. 9.
 15 1 1 2 0 0 -2.28451 0.434715 -4.05393 5 1.7768 0. 1
 -15 1 1 2 0 0 2.28451 -0.434715 4.05391 4.99999 1.7768 0. -1
</event>
<event>
 4 80 1 -1 -1 -1
 11 -1 0 0 0 0 0 0 4.99932 4.99932 0 0. 9.
 -11 -1 0 0 0 0 0 0 -5 5 0 0. 9.
 15 1 1 2 0 0 0.378251 2.13733 -4.13889 4.99994 1.7768 0. 1
 -15 1 1 2 0 0 -0.378251 -2.13733 4.13821 4.99938 1.7768 0. -1
</event>
<event>
 4 80 1 -1 -1 -1
 11 -1 0 0 0 0 0 0 5 5 0 0. 9.
 -11 -1 0 0 0 0 0 0 -5 5 0 0. 9.
 15 1 1 2 0 0 -2.25833 0.953368 3.97911 5 1.7768 0. 1
 -15 1 1 2 0 0 2.25833 -0.953368 -3.97911 5 1.7768 0. -1
</event>
<event>
 4 80 1 -1 -1 -1
 11 -1 0 0 0 0 0 0 4.98282 4.98282 0 0. 9.
 -11 -1 0 0 0 0 0 0 -5 5 0 0. 9.
 15 1 1 2 0 0 -2.2107 0.123126 -4.11396 4.99848 1.7768 0. -1
 -15 1 1 2 0 0 2.2107 -0.123126 4.09678 4.98435 1.7768 0. 1
</event>
<event>
 4 80 1 -1 -1 -1
 11 -1 0 0 0 0 0 0 5 5 0 0. 9.
 -11 -1 0 0 0 0 0 0 -5 5 0 0. 9.
 15 1 1 2 0 0 -1.40641 0.418886 -4.43721 5 1.7768 0. -1
 -15 1 1 2 0 0 1.40641 -0.418886 4.43721 5 1.7768 0. 1
</event>
<event>
 4 80 1 -1 -1 -1
 11 -1 0 0 0 0 0 0 5 5 0 0. 9.
 -11 -1 0 0 0 0 0 0 -5 5 0 0. 9.
 15 1 1 2 0 0 -1.24632 1.60944 4.20698 5 1.7768 0. 1
 -15 1 1 2 0 0 1.24632 -1.60944 -4.20698 5 1.7768 0. -1
</event>
<event>
 4 80 1 -1 -1 -1
 11 -1 0 0 0 0 0 0 4.86006 4.86006 0 0. 9.
 -11 -1 0 0 0 0 0 0 -5 5 0 0. 9.
 15 1 1 2 0 0 -0.347884 0.258926 -4.64804 4.995 1.7768 0. 1
 -15 1 1 2 0 0 0.347884 -0.258926 4.5081 4.86506 1.7768 0. -1
</event>
<event>
 4 80 1 -1 -1 -1
 11 -1 0 0 0 0 0 0 4.99962 4.99962 0 0. 9.
 -11 -1 0 0 0 0 0 0 -4.99935 4.99935 0 0. 9.
 15 1 1 2 0 0 -3.92765 1.92168 1.6487 4.99953 1.7768 0. -1
 -15 1 1 2 0 0 3.92765 -1.92168 -1.64843 4.99944 1.7768 0. 1
</event>
<event>
 4 80 1 -1 -1 -1
 11 -1 0 0 0 0 0 0 5 5 0 0. 9.
 -11 -1 0 0 0 0 0 0 -1.2397 1.2397 0 0. 9.
 15 1 1 2 0 0 -0.0225992 -1.23487 3.42274 4.04948 1.7768 0. -1
 -15 1 1 2 0 0 0.0225992 1.23487 0.337553 2.19022 1.7768 0. 1
</event>
<event>
 4 80 1 -1 -1 -1
 11 -1 0 0 0 0 0 0 5 5 0 0. 9.
 -11 -1 0 0 0 0 0 0 -5 5 0 0. 9.
 15 1 1 2 0 0 -3.51873 -1.24075 -2.81449 5 1.7768 0. -1
 -15 1 1 2 0 0 3.51873 1.24075 2.81449 5 1.7768 0. 1
</event>
<event>
 4 80 1 -1 -1 -1
 11 -1 0 0 0 0 0 0 2.71176 2.71176 0 0. 9.
 -11 -1 0 0 0 0 0 0 -5 5 0 0. 9.
 15 1 1 2 0 0 -0.950838 2.12864 1.1894 3.16348 1.7768 0. 1
 -15 1 1 2 0 0 0.950838 -2.12864 -3.47764 4.54828 1.7768 0. -1
</event>
<event>
 4 80 1 -1 -1 -1
 11 -1 0 0 0 0 0 0 5 5 0 0. 9.
 -11 -1 0 0 0 0 0 0 -5 5 0 0. 9.
 15 1 1 2 0 0 -4.13651 -0.819647 -2.01489 5 1.7768 0. 1
 -15 1 1 2 0 0 4.13651 0.819647 2.01489 5 1.7768 0. -1
</event>
<event>
 4 80 1 -1 -1 -1
 11 -1 0 0 0 0 0 0 4.9488 4.9488 0 0. 9.
 -11 -1 0 0 0 0 0 0 -5 5 0 0. 9.
 15 1 1 2 0 0 2.98555 -2.83442 -2.17941 4.98548 1.7768 0. 1
 -15 1 1 2 0 0 -2.98555 2.83442 2.12821 4.96331 1.7768 0. -1
</event>
<event>
 4 80 1 -1 -1 -1
 11 -1 0 0 0 0 0 0 4.43346 4.43346 0 0. 9.
 -11 -1 0 0 0 0 0 0 -5 5 0 0. 9.
 15 1 1 2 0 0 2.66106 3.33904 0.601015 4.66362 1.7768 0. 1
 -15 1 1 2 0 0 -2.66106 -3.33904 -1.16755 4.76984 1.7768 0. -1
</event>
<event>
 4 80 1 -1 -1 -1
 11 -1 0 0 0 0 0 0 4.99997 4.99997 0 0. 9.
 -11 -1 0 0 0 0 0 0 -1.26434 1.26434 0 0. 9.
 15 1 1 2 0 0 0.769132 0.108393 -0.125605 1.9434 1.7768 0. 1
 -15 1 1 2 0 0 -0.769132 -0.108393 3.86124 4.32091 1.7768 0. -1
</event>
<event>
 4 80 1 -1 -1 -1
 11 -1 0 0 0 0 0 0 4.99992 4.99992 0 0. 9.
 -11 -1 0 0 0 0 0 0 -4.99999 4.99999 0 0. 9.
 15 1 1 2 0 0 -3.46567 -2.17028 2.26289 4.99994 1.7768 0. -1
 -15 1 1 2 0 0 3.46567 2.17028 -2.26296 4.99997 1.7768 0. 1
</event>
<event>
 4 80 1 -1 -1 -1
 11 -1 0 0 0 0 0 0 5 5 0 0. 9.
 -11 -1 0 0 0 0 0 0 -1.19374 1.19374 0 0. 9.
 15 1 1 2 0 0 0.368646 0.0510121 -0.169109 1.82341 1.7768 0. 1
 -15 1 1 2 0 0 -0.368646 -0.0510121 3.97537 4.37033 1.7768 0. -1
</event>
<event>
 4 80 1 -1 -1 -1
 11 -1 0 0 0 0 0 0 5 5 0 0. 9.
 -11 -1 0 0 0 0 0 0 -4.99843 4.99843 0 0. 9.
 15 1 1 2 0 0 -0.649277 -2.69226 -3.7628 4.99863 1.7768 0. -1
 -15 1 1 2 0 0 0.649277 2.69226 3.76437 4.99981 1.7768 0. 1
</event>
<event>
 4 80 1 -1 -1 -1
 11 -1 0 0 0 0 0 0 5 5 0 0. 9.
 -11 -1 0 0 0 0 0 0 -5 5 0 0. 9.
 15 1 1 2 0 0 4.53778 0.87097 -0.701601 5 1.7768 0. 1
 -15 1 1 2 0 0 -4.53778 -0.87097 0.701601 5 1.7768 0. -1
</event>
<event>
 4 80 1 -1 -1 -1
 11 -1 0 0 0 0 0 0 5 5 0 0. 9.
 -11 -1 0 0 0 0 0 0 -5 5 0 0. 9.
 15 1 1 2 0 0 -1.77213 -0.247227 4.31749 5 1.7768 0. -1
 -15 1 1 2 0 0 1.77213 0.247227 -4.31749 5 1.7768 0. 1
</event>
<event>
 4 80 1 -1 -1 -1
 11 -1 0 0 0 0 0 0 4.95672 4.95672 0 0. 9.
 -11 -1 0 0 0 0 0 0 -4.99976 4.99976 0 0. 9.
 15 1 1 2 0 0 -0.225714 2.55693 -3.89917 4.995 1.7768 0. -1
 -15 1 1 2 0 0 0.225714 -2.55693 3.85612 4.96147 1.7768 0. 1
</event>
<event>
 4 80 1 -1 -1 -1
 11 -1 0 0 0 0 0 0 5 5 0 0. 9.
 -11 -1 0 0 0 0 0 0 -4.87904 4.87904 0 0. 9.
 15 1 1 2 0 0 0.682757 1.26476 4.43936 4.99314 1.7768 0. 1
 -15 1 1 2 0 0 -0.682757 -1.26476 -4.3184 4.8859 1.7768 0. -1
</event>
<event>
 4 80 1 -1 -1 -1
 11 -1 0 0 0 0 0 0 5 5 0 0. 9.
 -11 -1 0 0 0 0 0 0 -5 5 0 0. 9.
 15 1 1 2 0 0 -1.99245 -1.07214 -4.08937 5 1.7768 0. 1
 -15 1 1 2 0 0 1.99245 1.07214 4.08937 5 1.7768 0. -1
</event>
<event>
 4 80 1 -1 -1 -1
 11 -1 0 0 0 0 0 0 5 5 0 0. 9.
 -11 -1 0 0 0 0 0 0 -4.99995 4.99995 0 0. 9.
 15 1 1 2 0 0 -1.73214 -2.66978 -3.42255 4.99996 1.7768 0. 1
 -15 1 1 2 0 0 1.73214 2.66978 3.42259 4.99999 1.7768 0. -1
</event>
<event>
 4 80 1 -1 -1 -1
 11 -1 0 0 0 0 0 0 4.99117 4.99117 0 0. 9.
 -11 -1 0 0 0 0 0 0 -4.94953 4.94953 0 0. 9.
 15 1 1 2 0 0 2.46764 -3.29937 -2.11723 4.9614 1.7768 0. -1
 -15 1 1 2 0 0 -2.46764 3.29937 2.15887 4.97931 1.7768 0. 1
</event>
<event>
 4 80 1 -1 -1 -1
 11 -1 0 0 0 0 0 0 2.20405 2.20405 0 0. 9.
 -11 -1 0 0 0 0 0 0 -5 5 0 0. 9.
 15 1 1 2 0 0 1.27576 1.23872 -3.75045 4.51504 1.7768 0. 1
 -15 1 1 2 0 0 -1.27576 -1.23872 0.954498 2.68901 1.7768 0. -1
</event>
<event>
 4 80 1 -1 -1 -1
 11 -1 0 0 0 0 0 0 4.98914 4.98914 0 0. 9.
 -11 -1 0 0 0 0 0 0 -5 5 0 0. 9.
 15 1 1 2 0 0 -0.150523 3.52148 3.05472 4.99124 1.7768 0. -1
 -15 1 1 2 0 0 0.150523 -3.52148 -3.06558 4.9979 1.7768 0. 1
</event>
<event>
 4 80 1 -1 -1 -1
 11 -1 0 0 0 0 0 0 5 5 0 0. 9.
 -11 -1 0 0 0 0 0 0 -5 5 0 0. 9.
 15 1 1 2 0 0 4.58276 -0.162855 0.902252 5 1.7768 0. 1
 -15 1 1 2 0 0 -4.58276 0.162855 -0.902252 5 1.7768 0. -1
</event>
<event>
 4 80 1 -1 -1 -1
 11 -1 0 0 0 0 0 0 2.32133 2.32133 0 0. 9.
 -11 -1 0 0 0 0 0 0 -4.99897 4.99897 0 0. 9.
 15 1 1 2 0 0 2.36555 -1.68009 -1.15907 3.5944 1.7768 0. -1
 -15 1 1 2 0 0 -2.36555 1.68009 -1.51858 3.7259 1.7768 0. 1
</event>
<event>
 4 80 1 -1 -1 -1
 11 -1 0 0 0 0 0 0 4.32525 4.32525 0 0. 9.
 -11 -1 0 0 0 0 0 0 -4.98007 4.98007 0 0. 9.
 15 1 1 2 0 0 0.54998 1.66116 3.59645 4.37654 1.7768 0. 1
 -15 1 1 2 0 0 -0.54998 -1.66116 -4.25126 4.92878 1.7768 0. -1
</event>
<event>
 4 80 1 -1 -1 -1
 11 -1 0 0 0 0 0 0 4.01617 4.01617 0 0. 9.
 -11 -1 0 0 0 0 0 0 -5 5 0 0. 9.
 15 1 1 2 0 0 3.86597 0.173953 -1.89568 4.66126 1.7768 0. -1
 -15 1 1 2 0 0 -3.86597 -0.173953 0.911849 4.35491 1.7768 0. 1
</event>
<event>
 4 80 1 -1 -1 -1
 11 -1 0 0 0 0 0 0 0.923021 0.923021 0 0. 9.
 -11 -1 0 0 0 0 0 0 -5 5 0 0. 9.
 15 1 1 2 0 0 -0.220208 -0.543033 -0.583481 1.95999 1.7768 0. -1
 -15 1 1 2 0 0 0.220208 0.543033 -3.4935 3.96303 1.7768 0. 1
</event>
<event>
 4 80 1 -1 -1 -1
 11 -1 0 0 0 0 0 0 5 5 0 0. 9.
 -11 -1 0 0 0 0 0 0 -1.46307 1.46307 0 0. 9.
 15 1 1 2 0 0 -1.68095 0.525184 2.99637 3.90351 1.7768 0. 1
 -15 1 1 2 0 0 1.68095 -0.525184 0.54056 2.55956 1.7768 0. -1
</event>
<event>
 4 80 1 -1 -1 -1
 11 -1 0 0 0 0 0 0 1.50578 1.50578 0 0. 9.
 -11 -1 0 0 0 0 0 0 -5 5 0 0. 9.
 15 1 1 2 0 0 1.30654 0.316907 0.151066 2.23339 1.7768 0. 1
 -15 1 1 2 0 0 -1.30654 -0.316907 -3.64529 4.27239 1.7768 0. -1
</event>
<event>
 4 80 1 -1 -1 -1
 11 -1 0 0 0 0 0 0 5 5 0 0. 9.
 -11 -1 0 0 0 0 0 0 -5 5 0 0. 9.
 15 1 1 2 0 0 2.64466 -2.20866 3.15751 5 1.7768 0. -1
 -15 1 1 2 0 0 -2.64466 2.20866 -3.15751 5 1.7768 0. 1
</event>
<event>
 4 80 1 -1 -1 -1
 11 -1 0 0 0 0 0 0 2.75513 2.75513 0 0. 9.
 -11 -1 0 0 0 0 0 0 -4.99539 4.99539 0 0. 9.
 15 1 1 2 0 0 -0.599137 -0.0139611 2.22354 2.90878 1.7768 0. 1
 -15 1 1 2 0 0 0.599137 0.0139611 -4.4638 4.84174 1.7768 0. -1
</event>
<event>
 4 80 1 -1 -1 -1
 11 -1 0 0 0 0 0 0 5 5 0 0. 9.
 -11 -1 0 0 0 0 0 0 -4.98937 4.98937 0 0. 9.
 15 1 1 2 0 0 1.66031 -1.18068 -4.19451 4.99022 1.7768 0. 1
 -15 1 1 2 0 0 -1.66031 1.18068 4.20514 4.99915 1.7768 0. -1
</event>
<event>
 4 80 1 -1 -1 -1
 11 -1 0 0 0 0 0 0 4.99995 4.99995 0 0. 9.
 -11 -1 0 0 0 0 0 0 -5 5 0 0. 9.
 15 1 1 2 0 0 -1.64051 4.32187 0.687167 4.99997 1.7768 0. -1
 -15 1 1 2 0 0 1.64051 -4.32187 -0.687214 4.99998 1.7768 0. 1
</event>
<event>
 4 80 1 -1 -1 -1
 11 -1 0 0 0 0 0 0 5 5 0 0. 9.
 -11 -1 0 0 0 0 0 0 -5 5 0 0. 9.
 15 1 1 2 0 0 -4.64635 -0.4253 -0.26991 5 1.7768 0. 1
 -15 1 1 2 0 0 4.64635 0.4253 0.26991 5 1.7768 0. -1
</event>
<event>
 4 80 1 -1 -1 -1
 11 -1 0 0 0 0 0 0 5 5 0 0. 9.
 -11 -1 0 0 0 0 0 0 -4.97874 4.97874 0 0. 9.
 15 1 1 2 0 0 1.37604 2.31403 3.81692 4.99748 1.7768 0. 1
 -15 1 1 2 0 0 -1.37604 -2.31403 -3.79566 4.98126 1.7768 0. -1
</event>
<event>
 4 80 1 -1 -1 -1
 11 -1 0 0 0 0 0 0 3.6601 3.6601 0 0. 9.
 -11 -1 0 0 0 0 0 0 -1.75996 1.75996 0 0. 9.
 15 1 1 2 0 0 -1.58718 -0.519752 1.70102 2.97329 1.7768 0. -1
 -15 1 1 2 0 0 1.58718 0.519752 0.199122 2.44676 1.7768 0. 1
</event>
<event>
 4 80 1 -1 -1 -1
 11 -1 0 0 0 0 0 0 5 5 0 0. 9.
 -11 -1 0 0 0 0 0 0 -5 5 0 0. 9.
 15 1 1 2 0 0 2.4503 -1.29109 -3.76449 5 1.7768 0. -1
 -15 1 1 2 0 0 -2.4503 1.29109 3.76449 5 1.7768 0. 1
</event>
<event>
 4 80 1 -1 -1 -1
 11 -1 0 0 0 0 0 0 4.84997 4.84997 0 0. 9.
 -11 -1 0 0 0 0 0 0 -1.02977 1.02977 0 0. 9.
 15 1 1 2 0 0 0.651663 1.05193 2.6371 3.41222 1.7768 0. 1
 -15 1 1 2 0 0 -0.651663 -1.05193 1.18309 2.46752 1.7768 0. -1
</event>
<event>
 4 80 1 -1 -1 -1
 11 -1 0 0 0 0 0 0 1.3083 1.3083 0 0. 9.
 -11 -1 0 0 0 0 0 0 -5 5 0 0. 9.
 15 1 1 2 0 0 -1.40504 -0.0410726 -3.30917 4.0105 1.7768 0. -1
 -15 1 1 2 0 0 1.40504 0.0410726 -0.382533 2.2978 1.7768 0. 1
</event>
<event>
 4 80 1 -1 -1 -1
 11 -1 0 0 0 0 0 0 4.99998 4.99998 0 0. 9.
 -11 -1 0 0 0 0 0 0 -5 5 0 0. 9.
 15 1 1 2 0 0 -0.0962293 -4.46765 1.36856 4.99999 1.7768 0. 1
 -15 1 1 2 0 0 0.0962293 4.46765 -1.36858 4.99999 1.7768 0. -1
</event>
<event>
 4 80 1 -1 -1 -1
 11 -1 0 0 0 0 0 0 5 5 0 0. 9.
 -11 -1 0 0 0 0 0 0 -4.83356 4.83356 0 0. 9.
 15 1 1 2 0 0 -0.980998 -3.311 3.09778 4.9678 1.7768 0. 1
 -15 1 1 2 0 0 0.980998 3.311 -2.93135 4.86576 1.7768 0. -1
</event>
<event>
 4 80 1 -1 -1 -1
 11 -1 0 0 0 0 0 0 4.99999 4.99999 0 0. 9.
 -11 -1 0 0 0 0 0 0 -4.99703 4.99703 0 0. 9.
 15 1 1 2 0 0 -2.92422 3.61385 -0.463736 4.99837 1.7768 0. 1
 -15 1 1 2 0 0 2.92422 -3.61385 0.466689 4.99865 1.7768 0. -1
</event>
<event>
 4 80 1 -1 -1 -1
 11 -1 0 0 0 0 0 0 4.4683 4.4683 0 0. 9.
 -11 -1 0 0 0 0 0 0 -4.9869 4.9869 0 0. 9.
 15 1 1 2 0 0 -3.03827 -2.64522 1.44532 4.6341 1.7768 0. -1
 -15 1 1 2 0 0 3.03827 2.64522 -1.96392 4.8211 1.7768 0. 1
</event>
<event>
 4 80 1 -1 -1 -1
 11 -1 0 0 0 0 0 0 5 5 0 0. 9.
 -11 -1 0 0 0 0 0 0 -4.99986 4.99986 0 0. 9.
 15 1 1 2 0 0 2.88665 -2.65942 -2.5369 4.99989 1.7768 0. 1
 -15 1 1 2 0 0 -2.88665 2.65942 2.53705 4.99996 1.7768 0. -1
</event>
<event>
 4 80 1 -1 -1 -1
 11 -1 0 0 0 0 0 0 4.99937 4.99937 0 0. 9.
 -11 -1 0 0 0 0 0 0 -3.33007 3.33007 0 0. 9.
 15 1 1 2 0 0 -0.404848 2.00237 3.95025 4.78912 1.7768 0. -1
 -15 1 1 2 0 0 0.404848 -2.00237 -2.28095 3.54032 1.7768 0. 1
</event>
<event>
 4 80 1 -1 -1 -1
 11 -1 0 0 0 0 0 0 5 5 0 0. 9.
 -11 -1 0 0 0 0 0 0 -5 5 0 0. 9.
 15 1 1 2 0 0 -1.67619 2.63541 3.47667 5 1.7768 0. -1
 -15 1 1 2 0 0 1.67619 -2.63541 -3.47667 5 1.7768 0. 1
</event>
<event>
 4 80 1 -1 -1 -1
 11 -1 0 0 0 0 0 0 5 5 0 0. 9.
 -11 -1 0 0 0 0 0 0 -5 5 0 0. 9.
 15 1 1 2 0 0 -4.30902 -1.7652 -0.398338 5 1.7768 0. -1
 -15 1 1 2 0 0 4.30902 1.7652 0.398338 5 1.7768 0. 1
</event>
<event>
 4 80 1 -1 -1 -1
 11 -1 0 0 0 0 0 0 4.99991 4.99991 0 0. 9.
 -11 -1 0 0 0 0 0 0 -5 5 0 0. 9.
 15 1 1 2 0 0 0.850542 -3.96701 2.3197 4.99993 1.7768 0. -1
 -15 1 1 2 0 0 -0.850542 3.96701 -2.31979 4.99998 1.7768 0. 1
</event>
<event>
 4 80 1 -1 -1 -1
 11 -1 0 0 0 0 0 0 1.99495 1.99495 0 0. 9.
 -11 -1 0 0 0 0 0 0 -5 5 0 0. 9.
 15 1 1 2 0 0 2.34563 0.920908 -2.25926 3.82257 1.7768 0. -1
 -15 1 1 2 0 0 -2.34563 -0.920908 -0.745787 3.17238 1.7768 0. 1
</event>
<event>
 4 80 1 -1 -1 -1
 11 -1 0 0 0 0 0 0 5 5 0 0. 9.
 -11 -1 0 0 0 0 0 0 -4.99635 4.99635 0 0. 9.
 15 1 1 2 0 0 -3.43102 2.61788 -1.78672 4.99753 1.7768 0. -1
 -15 1 1 2 0 0 3.43102 -2.61788 1.79036 4.99883 1.7768 0. 1
</event>
<event>
 4 80 1 -1 -1 -1
 11 -1 0 0 0 0 0 0 4.99991 4.99991 0 0. 9.
 -11 -1 0 0 0 0 0 0 -5 5 0 0. 9.
 15 1 1 2 0 0 3.08043 -1.78078 3.03007 4.99993 1.7768 0. 1
 -15 1 1 2 0 0 -3.08043 1.78078 -3.03016 4.99998 1.7768 0. -1
</event>
<event>
 4 80 1 -1 -1 -1
 11 -1 0 0 0 0 0 0 5 5 0 0. 9.
 -11 -1 0 0 0 0 0 0 -4.99831 4.99831 0 0. 9.
 15 1 1 2 0 0 -2.17025 -2.36831 -3.39252 4.99858 1.7768 0. 1
 -15 1 1 2 0 0 2.17025 2.36831 3.39422 4.99973 1.7768 0. -1
</event>
<event>
 4 80 1 -1 -1 -1
 11 -1 0 0 0 0 0 0 5 5 0 0. 9.
 -11 -1 0 0 0 0 0 0 -4.99725 4.99725 0 0. 9.
 15 1 1 2 0 0 4.58572 0.864087 0.231728 4.99869 1.7768 0. -1
 -15 1 1 2 0 0 -4.58572 -0.864087 -0.228979 4.99856 1.7768 0. 1
</event>
<event>
 4 80 1 -1 -1 -1
 11 -1 0 0 0 0 0 0 5 5 0 0. 9.
 -11 -1 0 0 0 0 0 0 -5 5 0 0. 9.
 15 1 1 2 0 0 0.890013 -4.43574 -1.17231 5 1.7768 0. 1
 -15 1 1 2 0 0 -0.890013 4.43574 1.17231 5 1.7768 0. -1
</event>
<event>
 4 80 1 -1 -1 -1
 11 -1 0 0 0 0 0 0 5 5 0 0. 9.
 -11 -1 0 0 0 0 0 0 -5 5 0 0. 9.
 15 1 1 2 0 0 -0.911637 3.04347 3.4276 5 1.7768 0. -1
 -15 1 1 2 0 0 0.911637 -3.04347 -3.4276 5 1.7768 0. 1
</event>
<event>
 4 80 1 -1 -1 -1
 11 -1 0 0 0 0 0 0 5 5 0 0. 9.
 -11 -1 0 0 0 0 0 0 -4.70897 4.70897 0 0. 9.
 15 1 1 2 0 0 3.41301 0.633261 3.03428 4.94108 1.7768 0. 1
 -15 1 1 2 0 0 -3.41301 -0.633261 -2.74325 4.76789 1.7768 0. -1
</event>
<event>
 4 80 1 -1 -1 -1
 11 -1 0 0 0 0 0 0 5 5 0 0. 9.
 -11 -1 0 0 0 0 0 0 -4.99862 4.99862 0 0. 9.
 15 1 1 2 0 0 0.109286 -4.19685 2.05249 4.99959 1.7768 0. -1
 -15 1 1 2 0 0 -0.109286 4.19685 -2.05111 4.99903 1.7768 0. 1
</event>
<event>
 4 80 1 -1 -1 -1
 11 -1 0 0 0 0 0 0 4.99996 4.99996 0 0. 9.
 -11 -1 0 0 0 0 0 0 -4.99998 4.99998 0 0. 9.
 15 1 1 2 0 0 -0.573091 4.3177 -1.6944 4.99997 1.7768 0. 1
 -15 1 1 2 0 0 0.573091 -4.3177 1.69439 4.99997 1.7768 0. -1
</event>
<event>
 4 80 1 -1 -1 -1
 11 -1 0 0 0 0 0 0 4.98692 4.98692 0 0. 9.
 -11 -1 0 0 0 0 0 0 -5 5 0 0. 9.
 15 1 1 2 0 0 1.69604 -2.10277 -3.81163 4.99844 1.7768 0. -1
 -15 1 1 2 0 0 -1.69604 2.10277 3.79855 4.98848 1.7768 0. 1
</event>
<event>
 4 80 1 -1 -1 -1
 11 -1 0 0 0 0 0 0 5 5 0 0. 9.
 -11 -1 0 0 0 0 0 0 -5 5 0 0. 9.
 15 1 1 2 0 0 2.59133 -2.70796 -2.79182 5 1.7768 0. 1
 -15 1 1 2 0 0 -2.59133 2.70796 2.79182 5 1.7768 0. -1
</event>
<event>
 4 80 1 -1 -1 -1
 11 -1 0 0 0 0 0 0 5 5 0 0. 9.
 -11 -1 0 0 0 0 0 0 -4.99521 4.99521 0 0. 9.
 15 1 1 2 0 0 3.75174 -0.793888 2.66932 4.99888 1.7768 0. 1
 -15 1 1 2 0 0 -3.75174 0.793888 -2.66453 4.99633 1.7768 0. -1
</event>
<event>
 4 80 1 -1 -1 -1
 11 -1 0 0 0 0 0 0 4.99849 4.99849 0 0. 9.
 -11 -1 0 0 0 0 0 0 -4.99382 4.99382 0 0. 9.
 15 1 1 2 0 0 -1.71455 -0.305076 -4.33023 4.99413 1.7768 0. 1
 -15 1 1 2 0 0 1.71455 0.305076 4.3349 4.99818 1.7768 0. -1
</event>
<event>
 4 80 1 -1 -1 -1
 11 -1 0 0 0 0 0 0 4.9999 4.9999 0 0. 9.
 -11 -1 0 0 0 0 0 0 -4.99998 4.99998 0 0. 9.
 15 1 1 2 0 0 0.565402 3.15872 -3.39776 4.99997 1.7768 0. 1
 -15 1 1 2 0 0 -0.565402 -3.15872 3.39768 4.99991 1.7768 0. -1
</event>
<event>
 4 80 1 -1 -1 -1
 11 -1 0 0 0 0 0 0 5 5 0 0. 9.
 -11 -1 0 0 0 0 0 0 -4.99996 4.99996 0 0. 9.
 15 1 1 2 0 0 0.607765 2.35466 -3.991 4.99996 1.7768 0. -1
 -15 1 1 2 0 0 -0.607765 -2.35466 3.99104 5 1.7768 0. 1
</event>
<event>
 4 80 1 -1 -1 -1
 11 -1 0 0 0 0 0 0 5 5 0 0. 9.
 -11 -1 0 0 0 0 0 0 -5 5 0 0. 9.
 15 1 1 2 0 0 0.815952 1.92806 4.17841 5 1.7768 0. -1
 -15 1 1 2 0 0 -0.815952 -1.92806 -4.17841 5 1.7768 0. 1
</event>
<event>
 4 80 1 -1 -1 -1
 11 -1 0 0 0 0 0 0 5 5 0 0. 9.
 -11 -1 0 0 0 0 0 0 -5 5 0 0. 9.
 15 1 1 2 0 0 -3.29198 -0.280818 3.30549 5 1.7768 0. -1
 -15 1 1 2 0 0 3.29198 0.280818 -3.30549 5 1.7768 0. 1
</event>
<event>
 4 80 1 -1 -1 -1
 11 -1 0 0 0 0 0 0 5 5 0 0. 9.
 -11 -1 0 0 0 0 0 0 -5 5 0 0. 9.
 15 1 1 2 0 0 3.86871 -2.60731 -0.278015 5 1.7768 0. 1
 -15 1 1 2 0 0 -3.86871 2.60731 0.278014 5 1.7768 0. -1
</event>
<event>
 4 80 1 -1 -1 -1
 11 -1 0 0 0 0 0 0 3.96102 3.96102 0 0. 9.
 -11 -1 0 0 0 0 0 0 -5 5 0 0. 9.
 15 1 1 2 0 0 -1.17529 -2.29252 2.66591 4.11118 1.7768 0. -1
 -15 1 1 2 0 0 1.17529 2.29252 -3.7049 4.84984 1.7768 0. 1
</event>
<event>
 4 80 1 -1 -1 -1
 11 -1 0 0 0 0 0 0 4.99896 4.99896 0 0. 9.
 -11 -1 0 0 0 0 0 0 -5 5 0 0. 9.
 15 1 1 2 0 0 -4.49234 1.28429 0.0802019 4.99947 1.7768 0. 1
 -15 1 1 2 0 0 4.49234 -1.28429 -0.0812421 4.99949 1.7768 0. -1
</event>
<event>
 4 80 1 -1 -1 -1
 11 -1 0 0 0 0 0 0 5 5 0 0. 9.
 -11 -1 0 0 0 0 0 0 -5 5 0 0. 9.
 15 1 1 2 0 0 -1.1807 3.45372 2.91891 5 1.7768 0. -1
 -15 1 1 2 0 0 1.1807 -3.45372 -2.91891 5 1.7768 0. 1
</event>
<event>
 4 80 1 -1 -1 -1
 11 -1 0 0 0 0 0 0 4.99511 4.99511 0 0. 9.
 -11 -1 0 0 0 0 0 0 -5 5 0 0. 9.
 15 1 1 2 0 0 -1.08253 -3.48232 2.91636 4.99613 1.7768 0. -1
 -15 1 1 2 0 0 1.08253 3.48232 -2.92124 4.99898 1.7768 0. 1
</event>
<event>
 4 80 1 -1 -1 -1
 11 -1 0 0 0 0 0 0 4.02406 4.02406 0 0. 9.
 -11 -1 0 0 0 0 0 0 -4.99991 4.99991 0 0. 9.
 15 1 1 2 0 0 -2.65915 3.02535 -1.35227 4.60545 1.7768 0. 1
 -15 1 1 2 0 0 2.65915 -3.02535 0.376422 4.41851 1.7768 0. -1
</event>
<event>
 4 80 1 -1 -1 -1
 11 -1 0 0 0 0 0 0 5 5 0 0. 9.
 -11 -1 0 0 0 0 0 0 -5 5 0 0. 9.
 15 1 1 2 0 0 -0.495235 -4.01489 2.34045 5 1.7768 0. 1
 -15 1 1 2 0 0 0.495235 4.01489 -2.34045 5 1.7768 0. -1
</event>
<event>
 4 80 1 -1 -1 -1
 11 -1 0 0 0 0 0 0 4.99884 4.99884 0 0. 9.
 -11 -1 0 0 0 0 0 0 -5 5 0 0. 9.
 15 1 1 2 0 0 -0.650202 -4.57337 -0.706279 4.9995 1.7768 0. 1
 -15 1 1 2 0 0 0.650202 4.57337 0.705124 4.99934 1.7768 0. -1
</event>
<event>
 4 80 1 -1 -1 -1
 11 -1 0 0 0 0 0 0 4.47073 4.47073 0 0. 9.
 -11 -1 0 0 0 0 0 0 -2.40549 2.40549 0 0. 9.
 15 1 1 2 0 0 -1.67507 -0.219478 -1.25053 2.75238 1.7768 0. -1
 -15 1 1 2 0 0 1.67507 0.219478 3.31577 4.12384 1.7768 0. 1
</event>
<event>
 4 80 1 -1 -1 -1
 11 -1 0 0 0 0 0 0 5 5 0 0. 9.
 -11 -1 0 0 0 0 0 0 -5 5 0 0. 9.
 15 1 1 2 0 0 0.676639 -4.36311 1.53222 5 1.7768 0. -1
 -15 1 1 2 0 0 -0.676639 4.36311 -1.53222 5 1.7768 0. 1
</event>
<event>
 4 80 1 -1 -1 -1
 11 -1 0 0 0 0 0 0 4.99816 4.99816 0 0. 9.
 -11 -1 0 0 0 0 0 0 -5 5 0 0. 9.
 15 1 1 2 0 0 3.72585 0.465135 -2.78207 4.99959 1.7768 0. 1
 -15 1 1 2 0 0 -3.72585 -0.465135 2.78023 4.99857 1.7768 0. -1
</event>
<event>
 4 80 1 -1 -1 -1
 11 -1 0 0 0 0 0 0 1.9861 1.9861 0 0. 9.
 -11 -1 0 0 0 0 0 0 -2.5861 2.5861 0 0. 9.
 15 1 1 2 0 0 0.661729 -1.08312 -0.911481 2.36634 1.7768 0. 1
 -15 1 1 2 0 0 -0.661729 1.08312 0.311479 2.20585 1.7768 0. -1
</event>
<event>
 4 80 1 -1 -1 -1
 11 -1 0 0 0 0 0 0 5 5 0 0. 9.
 -11 -1 0 0 0 0 0 0 -4.15647 4.15647 0 0. 9.
 15 1 1 2 0 0 2.45451 -2.51727 -1.88224 4.36598 1.7768 0. -1
 -15 1 1 2 0 0 -2.45451 2.51727 2.72577 4.79049 1.7768 0. 1
</event>
<event>
 4 80 1 -1 -1 -1
 11 -1 0 0 0 0 0 0 4.99738 4.99738 0 0. 9.
 -11 -1 0 0 0 0 0 0 -5 5 0 0. 9.
 15 1 1 2 0 0 -2.35086 2.78709 -2.92274 4.99946 1.7768 0. -1
 -15 1 1 2 0 0 2.35086 -2.78709 2.92012 4.99792 1.7768 0. 1
</event>
<event>
 4 80 1 -1 -1 -1
 11 -1 0 0 0 0 0 0 5 5 0 0. 9.
 -11 -1 0 0 0 0 0 0 -1.18811 1.18811 0 0. 9.
 15 1 1 2 0 0 -0.970129 0.487347 3.51377 4.08448 1.7768 0. 1
 -15 1 1 2 0 0 0.970129 -0.487347 0.298116 2.10363 1.7768 0. -1
</event>
<event>
 4 80 1 -1 -1 -1
 11 -1 0 0 0 0 0 0 5 5 0 0. 9.
 -11 -1 0 0 0 0 0 0 -5 5 0 0. 9.
 15 1 1 2 0 0 -3.3733 2.04664 2.50488 5 1.7768 0. 1
 -15 1 1 2 0 0 3.3733 -2.04664 -2.50488 5 1.7768 0. -1
</event>
<event>
 4 80 1 -1 -1 -1
 11 -1 0 0 0 0 0 0 5 5 0 0. 9.
 -11 -1 0 0 0 0 0 0 -5 5 0 0. 9.
 15 1 1 2 0 0 -0.601271 1.96036 4.19973 5 1.7768 0. -1
 -15 1 1 2 0 0 0.601271 -1.96036 -4.19973 5 1.7768 0. 1
</event>
<event>
 4 80 1 -1 -1 -1
 11 -1 0 0 0 0 0 0 3.44182 3.44182 0 0. 9.
 -11 -1 0 0 0 0 0 0 -4.99996 4.99996 0 0. 9.
 15 1 1 2 0 0 0.0458302 -0.11494 -4.59102 4.92448 1.7768 0. 1
 -15 1 1 2 0 0 -0.0458302 0.11494 3.03288 3.5173 1.7768 0. -1
</event>
<event>
 4 80 1 -1 -1 -1
 11 -1 0 0 0 0 0 0 5 5 0 0. 9.
 -11 -1 0 0 0 0 0 0 -1.23264 1.23264 0 0. 9.
 15 1 1 2 0 0 -0.295785 -1.1648 0.315215 2.16825 1.7768 0. 1
 -15 1 1 2 0 0 0.295785 1.1648 3.45214 4.06439 1.7768 0. -1
</event>
<event>
 4 80 1 -1 -1 -1
 11 -1 0 0 0 0 0 0 4.94067 4.94067 0 0. 9.
 -11 -1 0 0 0 0 0 0 -4.86757 4.86757 0 0. 9.
 15 1 1 2 0 0 -2.39927 3.88936 0.124062 4.90477 1.7768 0. -1
 -15 1 1 2 0 0 2.39927 -3.88936 -0.0509646 4.90346 1.7768 0. 1
</event>
<event>
 4 80 1 -1 -1 -1
 11 -1 0 0 0 0 0 0 4.95534 4.95534 0 0. 9.
 -11 -1 0 0 0 0 0 0 -5 5 0 0. 9.
 15 1 1 2 0 0 -0.264635 4.27795 -1.82458 4.98576 1.7768 0. -1
 -15 1 1 2 0 0 0.264635 -4.27795 1.77993 4.96959 1.7768 0. 1
</event>
<event>
 4 80 1 -1 -1 -1
 11 -1 0 0 0 0 0 0 3.55163 3.55163 0 0. 9.
 -11 -1 0 0 0 0 0 0 -5 5 0 0. 9.
 15 1 1 2 0 0 3.49974 -0.99902 -1.90494 4.4758 1.7768 0. 1
 -15 1 1 2 0 0 -3.49974 0.99902 0.456568 4.07583 1.7768 0. -1
</event>
<event>
 4 80 1 -1 -1 -1
 11 -1 0 0 0 0 0 0 4.99981 4.99981 0 0. 9.
 -11 -1 0 0 0 0 0 0 -5 5 0 0. 9.
 15 1 1 2 0 0 0.326098 -3.06919 -3.50937 4.99997 1.7768 0. -1
 -15 1 1 2 0 0 -0.326098 3.06919 3.50918 4.99984 1.7768 0. 1
</event>
<event>
 4 80 1 -1 -1 -1
 11 -1 0 0 0 0 0 0 4.18787 4.18787 0 0. 9.
 -11 -1 0 0 0 0 0 0 -5 5 0 0. 9.
 15 1 1 2 0 0 0.987827 2.91214 2.49063 4.33789 1.7768 0. -1
 -15 1 1 2 0 0 -0.987827 -2.91214 -3.30276 4.84998 1.7768 0. 1
</event>
<event>
 4 80 1 -1 -1 -1
 11 -1 0 0 0 0 0 0 4.99998 4.99998 0 0. 9.
 -11 -1 0 0 0 0 0 0 -3.22126 3.22126 0 0. 9.
 15 1 1 2 0 0 2.06685 -1.31348 -1.81115 3.52634 1.7768 0. -1
 -15 1 1 2 0 0 -2.06685 1.31348 3.58988 4.6949 1.7768 0. 1
</event>
<event>
 4 80 1 -1 -1 -1
 11 -1 0 0 0 0 0 0 5 5 0 0. 9.
 -11 -1 0 0 0 0 0 0 -5 5 0 0. 9.
 15 1 1 2 0 0 2.24283 4.04281 0.683874 5 1.7768 0. -1
 -15 1 1 2 0 0 -2.24283 -4.04281 -0.683874 5 1.7768 0. 1
</event>
<event>
 4 80 1 -1 -1 -1
 11 -1 0 0 0 0 0 0 5 5 0 0. 9.
 -11 -1 0 0 0 0 0 0 -4.99904 4.99904 0 0. 9.
 15 1 1 2 0 0 -1.8464 0.455065 -4.26815 4.99911 1.7768 0. 1
 -15 1 1 2 0 0 1.8464 -0.455065 4.26911 4.99993 1.7768 0. -1
</event>
<event>
 4 80 1 -1 -1 -1
 11 -1 0 0 0 0 0 0 5 5 0 0. 9.
 -11 -1 0 0 0 0 0 0 -5 5 0 0. 9.
 15 1 1 2 0 0 4.14135 -0.27657 2.14826 5 1.7768 0. 1
 -15 1 1 2 0 0 -4.14135 0.27657 -2.14826 5 1.7768 0. -1
</event>
<event>
 4 80 1 -1 -1 -1
 11 -1 0 0 0 0 0 0 4.99989 4.99989 0 0. 9.
 -11 -1 0 0 0 0 0 0 -4.99529 4.99529 0 0. 9.
 15 1 1 2 0 0 -0.724412 -3.88022 2.49976 4.99874 1.7768 0. -1
 -15 1 1 2 0 0 0.724412 3.88022 -2.49515 4.99644 1.7768 0. 1
</event>
<event>
 4 80 1 -1 -1 -1
 11 -1 0 0 0 0 0 0 4.92403 4.92403 0 0. 9.
 -11 -1 0 0 0 0 0 0 -5 5 0 0. 9.
 15 1 1 2 0 0 -2.54718 -0.11006 3.83023 4.93241 1.7768 0. -1
 -15 1 1 2 0 0 2.54718 0.11006 -3.9062 4.99163 1.7768 0. 1
</event>
<event>
 4 80 1 -1 -1 -1
 11 -1 0 0 0 0 0 0 4.99432 4.99432 0 0. 9.
 -11 -1 0 0 0 0 0 0 -5 5 0 0. 9.
 15 1 1 2 0 0 -2.81825 2.73185 -2.53431 4.9986 1.7768 0. 1
 -15 1 1 2 0 0 2.81825 -2.73185 2.52863 4.99572 1.7768 0. -1
</event>
<event>
 4 80 1 -1 -1 -1
 11 -1 0 0 0 0 0 0 5 5 0 0. 9.
 -11 -1 0 0 0 0 0 0 -4.99996 4.99996 0 0. 9.
 15 1 1 2 0 0 -1.02519 -4.55959 -0.0346183 4.99998 1.7768 0. -1
 -15 1 1 2 0 0 1.02519 4.55959 0.0346618 4.99998 1.7768 0. 1
</event>
<event>
 4 80 1 -1 -1 -1
 11 -1 0 0 0 0 0 0 4.99996 4.99996 0 0. 9.
 -11 -1 0 0 0 0 0 0 -5 5 0 0. 9.
 15 1 1 2 0 0 -1.752 -0.922224 4.23342 4.99996 1.7768 0. -1
 -15 1 1 2 0 0 1.752 0.922224 -4.23347 5 1.7768 0. 1
</event>
<event>
 4 80 1 -1 -1 -1
 11 -1 0 0 0 0 0 0 5 5 0 0. 9.
 -11 -1 0 0 0 0 0 0 -4.97979 4.97979 0 0. 9.
 15 1 1 2 0 0 -2.4799 -0.782741 3.88034 4.99773 1.7768 0. -1
 -15 1 1 2 0 0 2.4799 0.782741 -3.86013 4.98206 1.7768 0. 1
</event>
<event>
 4 80 1 -1 -1 -1
 11 -1 0 0 0 0 0 0 5 5 0 0. 9.
 -11 -1 0 0 0 0 0 0 -4.88818 4.88818 0 0. 9.
 15 1 1 2 0 0 1.58959 -3.63159 2.41571 4.97078 1.7768 0. 1
 -15 1 1 2 0 0 -1.58959 3.63159 -2.30388 4.9174 1.7768 0. -1
</event>
<event>
 4 80 1 -1 -1 -1
 11 -1 0 0 0 0 0 0 5 5 0 0. 9.
 -11 -1 0 0 0 0 0 0 -4.99985 4.99985 0 0. 9.
 15 1 1 2 0 0 -1.07175 4.27369 -1.55826 4.9999 1.7768 0. 1
 -15 1 1 2 0 0 1.07175 -4.27369 1.55841 4.99995 1.7768 0. -1
</event>
<event>
 4 80 1 -1 -1 -1
 11 -1 0 0 0 0 0 0 5 5 0 0. 9.
 -11 -1 0 0 0 0 0 0 -5 5 0 0. 9.
 15 1 1 2 0 0 3.98758 -0.829673 2.29196 5 1.7768 0. -1
 -15 1 1 2 0 0 -3.98758 0.829673 -2.29196 5 1.7768 0. 1
</event>
<event>
 4 80 1 -1 -1 -1
 11 -1 0 0 0 0 0 0 5 5 0 0. 9.
 -11 -1 0 0 0 0 0 0 -5 5 0 0. 9.
 15 1 1 2 0 0 -2.71953 2.70052 -2.67463 5 1.7768 0. -1
 -15 1 1 2 0 0 2.71953 -2.70052 2.67463 5 1.7768 0. 1
</event>
<event>
 4 80 1 -1 -1 -1
 11 -1 0 0 0 0 0 0 5 5 0 0. 9.
 -11 -1 0 0 0 0 0 0 -4.45644 4.45644 0 0. 9.
 15 1 1 2 0 0 2.23337 2.50802 3.07756 4.8895 1.7768 0. -1
 -15 1 1 2 0 0 -2.23337 -2.50802 -2.53399 4.56694 1.7768 0. 1
</event>
<event>
 4 80 1 -1 -1 -1
 11 -1 0 0 0 0 0 0 4.39611 4.39611 0 0. 9.
 -11 -1 0 0 0 0 0 0 -5 5 0 0. 9.
 15 1 1 2 0 0 3.59568 -0.850313 1.97672 4.5516 1.7768 0. 1
 -15 1 1 2 0 0 -3.59568 0.850313 -2.58062 4.8445 1.7768 0. -1
</event>
<event>
 4 80 1 -1 -1 -1
 11 -1 0 0 0 0 0 0 4.99997 4.99997 0 0. 9.
 -11 -1 0 0 0 0 0 0 -4.49978 4.49978 0 0. 9.
 15 1 1 2 0 0 -0.392772 -0.40696 4.61748 4.97983 1.7768 0. -1
 -15 1 1 2 0 0 0.392772 0.40696 -4.11729 4.51992 1.7768 0. 1
</event>
<event>
 4 80 1 -1 -1 -1
 11 -1 0 0 0 0 0 0 4.69701 4.69701 0 0. 9.
 -11 -1 0 0 0 0 0 0 -4.99981 4.99981 0 0. 9.
 15 1 1 2 0 0 4.43837 0.750355 0.102292 4.84049 1.7768 0. -1
 -15 1 1 2 0 0 -4.43837 -0.750355 -0.405083 4.85633 1.7768 0. 1
</event>
<event>
 4 80 1 -1 -1 -1
 11 -1 0 0 0 0 0 0 5 5 0 0. 9.
 -11 -1 0 0 0 0 0 0 -5 5 0 0. 9.
 15 1 1 2 0 0 1.67596 0.351891 4.34852 5 1.7768 0. -1
 -15 1 1 2 0 0 -1.67596 -0.351891 -4.34852 5 1.7768 0. 1
</event>
<event>
 4 80 1 -1 -1 -1
 11 -1 0 0 0 0 0 0 4.99996 4.99996 0 0. 9.
 -11 -1 0 0 0 0 0 0 -5 5 0 0. 9.
 15 1 1 2 0 0 -1.43389 -2.9852 -3.29769 4.99999 1.7768 0. -1
 -15 1 1 2 0 0 1.43389 2.9852 3.29765 4.99997 1.7768 0. 1
</event>
<event>
 4 80 1 -1 -1 -1
 11 -1 0 0 0 0 0 0 5 5 0 0. 9.
 -11 -1 0 0 0 0 0 0 -4.99861 4.99861 0 0. 9.
 15 1 1 2 0 0 0.918974 -2.95869 -3.49744 4.99882 1.7768 0. 1
 -15 1 1 2 0 0 -0.918974 2.95869 3.49883 4.99979 1.7768 0. -1
</event>
<event>
 4 80 1 -1 -1 -1
 11 -1 0 0 0 0 0 0 5 5 0 0. 9.
 -11 -1 0 0 0 0 0 0 -5 5 0 0. 9.
 15 1 1 2 0 0 -2.01724 -3.25705 -2.67668 5 1.7768 0. -1
 -15 1 1 2 0 0 2.01724 3.25705 2.67668 5 1.7768 0. 1
</event>
<event>
 4 80 1 -1 -1 -1
 11 -1 0 0 0 0 0 0 3.78524 3.78524 0 0. 9.
 -11 -1 0 0 0 0 0 0 -4.99998 4.99998 0 0. 9.
 15 1 1 2 0 0 2.70558 2.89311 -0.325097 4.35358 1.7768 0. -1
 -15 1 1 2 0 0 -2.70558 -2.89311 -0.889642 4.43164 1.7768 0. 1
</event>
<event>
 4 80 1 -1 -1 -1
 11 -1 0 0 0 0 0 0 5 5 0 0. 9.
 -11 -1 0 0 0 0 0 0 -4.94879 4.94879 0 0. 9.
 15 1 1 2 0 0 -0.188899 3.68031 -2.80389 4.95983 1.7768 0. -1
 -15 1 1 2 0 0 0.188899 -3.68031 2.8551 4.98896 1.7768 0. 1
</event>
<event>
 4 80 1 -1 -1 -1
 11 -1 0 0 0 0 0 0 4.37552 4.37552 0 0. 9.
 -11 -1 0 0 0 0 0 0 -4.99997 4.99997 0 0. 9.
 15 1 1 2 0 0 -0.418611 2.14711 3.42897 4.43856 1.7768 0. 1
 -15 1 1 2 0 0 0.418611 -2.14711 -4.05341 4.93692 1.7768 0. -1
</event>
<event>
 4 80 1 -1 -1 -1
 11 -1 0 0 0 0 0 0 4.99786 4.99786 0 0. 9.
 -11 -1 0 0 0 0 0 0 -5 5 0 0. 9.
 15 1 1 2 0 0 -2.02134 -3.78743 -1.84529 4.99932 1.7768 0. -1
 -15 1 1 2 0 0 2.02134 3.78743 1.84315 4.99853 1.7768 0. 1
</event>
<event>
 4 80 1 -1 -1 -1
 11 -1 0 0 0 0 0 0 4.93349 4.93349 0 0. 9.
 -11 -1 0 0 0 0 0 0 -5 5 0 0. 9.
 15 1 1 2 0 0 -3.62639 1.51217 2.43102 4.95024 1.7768 0. 1
 -15 1 1 2 0 0 3.62639 -1.51217 -2.49753 4.98324 1.7768 0. -1
</event>
<event>
 4 80 1 -1 -1 -1
 11 -1 0 0 0 0 0 0 5 5 0 0. 9.
 -11 -1 0 0 0 0 0 0 -4.91586 4.91586 0 0. 9.
 15 1 1 2 0 0 -0.0283105 1.78252 -4.22931 4.92169 1.7768 0. 1
 -15 1 1 2 0 0 0.0283105 -1.78252 4.31345 4.99417 1.7768 0. -1
</event>
<event>
 4 80 1 -1 -1 -1
 11 -1 0 0 0 0 0 0 5 5 0 0. 9.
 -11 -1 0 0 0 0 0 0 -5 5 0 0. 9.
 15 1 1 2 0 0 4.38616 1.53743 -0.490078 5 1.7768 0. -1
 -15 1 1 2 0 0 -4.38616 -1.53743 0.490079 5 1.7768 0. 1
</event>
<event>
 4 80 1 -1 -1 -1
 11 -1 0 0 0 0 0 0 5 5 0 0. 9.
 -11 -1 0 0 0 0 0 0 -4.99577 4.99577 0 0. 9.
 15 1 1 2 0 0 -0.652574 1.36916 -4.4161 4.99601 1.7768 0. 1
 -15 1 1 2 0 0 0.652574 -1.36916 4.42034 4.99975 1.7768 0. -1
</event>
<event>
 4 80 1 -1 -1 -1
 11 -1 0 0 0 0 0 0 5 5 0 0. 9.
 -11 -1 0 0 0 0 0 0 -5 5 0 0. 9.
 15 1 1 2 0 0 -2.56998 3.90349 -0.0158349 5 1.7768 0. 1
 -15 1 1 2 0 0 2.56998 -3.90349 0.0158357 5 1.7768 0. -1
</event>
<event>
 4 80 1 -1 -1 -1
 11 -1 0 0 0 0 0 0 5 5 0 0. 9.
 -11 -1 0 0 0 0 0 0 -5 5 0 0. 9.
 15 1 1 2 0 0 2.14737 0.274942 -4.14192 5 1.7768 0. -1
 -15 1 1 2 0 0 -2.14737 -0.274942 4.14192 5 1.7768 0. 1
</event>
<event>
 4 80 1 -1 -1 -1
 11 -1 0 0 0 0 0 0 4.02414 4.02414 0 0. 9.
 -11 -1 0 0 0 0 0 0 -4.99999 4.99999 0 0. 9.
 15 1 1 2 0 0 -0.713947 3.51327 1.55139 4.29154 1.7768 0. 1
 -15 1 1 2 0 0 0.713947 -3.51327 -2.52724 4.73259 1.7768 0. -1
</event>
<event>
 4 80 1 -1 -1 -1
 11 -1 0 0 0 0 0 0 4.98964 4.98964 0 0. 9.
 -11 -1 0 0 0 0 0 0 -5 5 0 0. 9.
 15 1 1 2 0 0 -2.14824 -4.1065 0.553573 4.99424 1.7768 0. -1
 -15 1 1 2 0 0 2.14824 4.1065 -0.563929 4.9954 1.7768 0. 1
</event>
<event>
 4 80 1 -1 -1 -1
 11 -1 0 0 0 0 0 0 5 5 0 0. 9.
 -11 -1 0 0 0 0 0 0 -5 5 0 0. 9.
 15 1 1 2 0 0 4.55797 0.497174 0.905521 5 1.7768 0. -1
 -15 1 1 2 0 0 -4.55797 -0.497174 -0.905521 5 1.7768 0. 1
</event>
<event>
 4 80 1 -1 -1 -1
 11 -1 0 0 0 0 0 0 5 5 0 0. 9.
 -11 -1 0 0 0 0 0 0 -5 5 0 0. 9.
 15 1 1 2 0 0 1.80781 0.966893 -4.1999 5 1.7768 0. 1
 -15 1 1 2 0 0 -1.80781 -0.966893 4.1999 5 1.7768 0. -1
</event>
<event>
 4 80 1 -1 -1 -1
 11 -1 0 0 0 0 0 0 5 5 0 0. 9.
 -11 -1 0 0 0 0 0 0 -4.99999 4.99999 0 0. 9.
 15 1 1 2 0 0 -2.88501 -0.259629 3.66763 5 1.7768 0. 1
 -15 1 1 2 0 0 2.88501 0.259629 -3.66763 4.99999 1.7768 0. -1
</event>
<event>
 4 80 1 -1 -1 -1
 11 -1 0 0 0 0 0 0 4.9994 4.9994 0 0. 9.
 -11 -1 0 0 0 0 0 0 -5 5 0 0. 9.
 15 1 1 2 0 0 -1.17925 -4.32838 1.30882 4.99962 1.7768 0. -1
 -15 1 1 2 0 0 1.17925 4.32838 -1.30942 4.99978 1.7768 0. 1
</event>
<event>
 4 80 1 -1 -1 -1
 11 -1 0 0 0 0 0 0 4.99994 4.99994 0 0. 9.
 -11 -1 0 0 0 0 0 0 -5 5 0 0. 9.
 15 1 1 2 0 0 1.93965 -4.1182 -1.05838 4.99997 1.7768 0. 1
 -15 1 1 2 0 0 -1.93965 4.1182 1.05831 4.99996 1.7768 0. -1
</event>
<event>
 4 80 1 -1 -1 -1
 11 -1 0 0 0 0 0 0 5 5 0 0. 9.
 -11 -1 0 0 0 0 0 0 -0.977105 0.977105 0 0. 9.
 15 1 1 2 0 0 0.0859095 -0.268648 3.74731 4.15688 1.7768 0. -1
 -15 1 1 2 0 0 -0.0859095 0.268648 0.275582 1.82023 1.7768 0. 1
</event>
<event>
 4 80 1 -1 -1 -1
 11 -1 0 0 0 0 0 0 4.71043 4.71043 0 0. 9.
 -11 -1 0 0 0 0 0 0 -4.86582 4.86582 0 0. 9.
 15 1 1 2 0 0 -0.851611 -0.0219209 4.28598 4.71732 1.7768 0. 1
 -15 1 1 2 0 0 0.851611 0.0219209 -4.44137 4.85894 1.7768 0. -1
</event>
<event>
 4 80 1 -1 -1 -1
 11 -1 0 0 0 0 0 0 4.6154 4.6154 0 0. 9.
 -11 -1 0 0 0 0 0 0 -5 5 0 0. 9.
 15 1 1 2 0 0 3.9039 -1.55194 1.31565 4.74738 1.7768 0. -1
 -15 1 1 2 0 0 -3.9039 1.55194 -1.70025 4.86801 1.7768 0. 1
</event>
<event>
 4 80 1 -1 -1 -1
 11 -1 0 0 0 0 0 0 5 5 0 0. 9.
 -11 -1 0 0 0 0 0 0 -5 5 0 0. 9.
 15 1 1 2 0 0 0.0651258 -0.143764 -4.67091 5 1.7768 0. 1
 -15 1 1 2 0 0 -0.0651258 0.143764 4.67091 5 1.7768 0. -1
</event>
<event>
 4 80 1 -1 -1 -1
 11 -1 0 0 0 0 0 0 4.91605 4.91605 0 0. 9.
 -11 -1 0 0 0 0 0 0 -5 5 0 0. 9.
 15 1 1 2 0 0 2.43627 3.66025 1.40364 4.94578 1.7768 0. -1
 -15 1 1 2 0 0 -2.43627 -3.66025 -1.4876 4.97026 1.7768 0. 1
</event>
<event>
 4 80 1 -1 -1 -1
 11 -1 0 0 0 0 0 0 5 5 0 0. 9.
 -11 -1 0 0 0 0 0 0 -5 5 0 0. 9.
 15 1 1 2 0 0 1.28976 -0.651874 -4.44453 5 1.7768 0. -1
 -15 1 1 2 0 0 -1.28976 0.651874 4.44453 5 1.7768 0. 1
</event>
<event>
 4 80 1 -1 -1 -1
 11 -1 0 0 0 0 0 0 4.35298 4.35298 0 0. 9.
 -11 -1 0 0 0 0 0 0 -4.99759 4.99759 0 0. 9.
 15 1 1 2 0 0 2.78485 2.74237 -2.14894 4.80121 1.7768 0. 1
 -15 1 1 2 0 0 -2.78485 -2.74237 1.50433 4.54936 1.7768 0. -1
</event>
<event>
 4 80 1 -1 -1 -1
 11 -1 0 0 0 0 0 0 1.69316 1.69316 0 0. 9.
 -11 -1 0 0 0 0 0 0 -3.78799 3.78799 0 0. 9.
 15 1 1 2 0 0 -0.434524 -0.787404 -2.74025 3.38755 1.7768 0. -1
 -15 1 1 2 0 0 0.434524 0.787404 0.64542 2.09359 1.7768 0. 1
</event>
<event>
 4 80 1 -1 -1 -1
 11 -1 0 0 0 0 0 0 2.8092 2.8092 0 0. 9.
 -11 -1 0 0 0 0 0 0 -5 5 0 0. 9.
 15 1 1 2 0 0 0.41051 1.89641 1.68523 3.12452 1.7768 0. 1
 -15 1 1 2 0 0 -0.41051 -1.89641 -3.87603 4.68468 1.7768 0. -1
</event>
<event>
 4 80 1 -1 -1 -1
 11 -1 0 0 0 0 0 0 5 5 0 0. 9.
 -11 -1 0 0 0 0 0 0 -5 5 0 0. 9.
 15 1 1 2 0 0 0.562068 0.770392 -4.57524 5 1.7768 0. 1
 -15 1 1 2 0 0 -0.562068 -0.770392 4.57524 5 1.7768 0. -1
</event>
<event>
 4 80 1 -1 -1 -1
 11 -1 0 0 0 0 0 0 5 5 0 0. 9.
 -11 -1 0 0 0 0 0 0 -5 5 0 0. 9.
 15 1 1 2 0 0 0.0357795 0.810408 -4.60263 5 1.7768 0. -1
 -15 1 1 2 0 0 -0.0357795 -0.810408 4.60263 5 1.7768 0. 1
</event>
<event>
 4 80 1 -1 -1 -1
 11 -1 0 0 0 0 0 0 5 5 0 0. 9.
 -11 -1 0 0 0 0 0 0 -5 5 0 0. 9.
 15 1 1 2 0 0 1.68391 -2.62138 3.48354 5 1.7768 0. 1
 -15 1 1 2 0 0 -1.68391 2.62138 -3.48354 5 1.7768 0. -1
</event>
<event>
 4 80 1 -1 -1 -1
 11 -1 0 0 0 0 0 0 4.99949 4.99949 0 0. 9.
 -11 -1 0 0 0 0 0 0 -4.97318 4.97318 0 0. 9.
 15 1 1 2 0 0 -2.18863 -1.76802 3.72661 4.99614 1.7768 0. -1
 -15 1 1 2 0 0 2.18863 1.76802 -3.7003 4.97654 1.7768 0. 1
</event>
<event>
 4 80 1 -1 -1 -1
 11 -1 0 0 0 0 0 0 4.99967 4.99967 0 0. 9.
 -11 -1 0 0 0 0 0 0 -4.99983 4.99983 0 0. 9.
 15 1 1 2 0 0 1.39159 -2.85354 -3.42945 4.99981 1.7768 0. -1
 -15 1 1 2 0 0 -1.39159 2.85354 3.42929 4.9997 1.7768 0. 1
</event>
<event>
 4 80 1 -1 -1 -1
 11 -1 0 0 0 0 0 0 4.92714 4.92714 0 0. 9.
 -11 -1 0 0 0 0 0 0 -5 5 0 0. 9.
 15 1 1 2 0 0 -3.97305 -1.03686 -2.18538 4.97934 1.7768 0. -1
 -15 1 1 2 0 0 3.97305 1.03686 2.11252 4.9478 1.7768 0. 1
</event>
<event>
 4 80 1 -1 -1 -1
 11 -1 0 0 0 0 0 0 5 5 0 0. 9.
 -11 -1 0 0 0 0 0 0 -4.18636 4.18636 0 0. 9.
 15 1 1 2 0 0 0.295908 -1.09362 4.48369 4.95427 1.7768 0. 1
 -15 1 1 2 0 0 -0.295908 1.09362 -3.67005 4.23209 1.7768 0. -1
</event>
<event>
 4 80 1 -1 -1 -1
 11 -1 0 0 0 0 0 0 5 5 0 0. 9.
 -11 -1 0 0 0 0 0 0 -5 5 0 0. 9.
 15 1 1 2 0 0 -2.55923 -3.1812 2.27433 5 1.7768 0. 1
 -15 1 1 2 0 0 2.55923 3.1812 -2.27433 5 1.7768 0. -1
</event>
<event>
 4 80 1 -1 -1 -1
 11 -1 0 0 0 0 0 0 4.99996 4.99996 0 0. 9.
 -11 -1 0 0 0 0 0 0 -5 5 0 0. 9.
 15 1 1 2 0 0 -2.92791 -1.48945 -3.32431 4.99999 1.7768 0. -1
 -15 1 1 2 0 0 2.92791 1.48945 3.32428 4.99997 1.7768 0. 1
</event>
<event>
 4 80 1 -1 -1 -1
 11 -1 0 0 0 0 0 0 5 5 0 0. 9.
 -11 -1 0 0 0 0 0 0 -5 5 0 0. 9.
 15 1 1 2 0 0 -1.59249 2.33612 -3.7214 5 1.7768 0. 1
 -15 1 1 2 0 0 1.59249 -2.33612 3.7214 5 1.7768 0. -1
</event>
<event>
 4 80 1 -1 -1 -1
 11 -1 0 0 0 0 0 0 4.99977 4.99977 0 0. 9.
 -11 -1 0 0 0 0 0 0 -3.30377 3.30377 0 0. 9.
 15 1 1 2 0 0 2.24872 -1.9176 -1.34924 3.70298 1.7768 0. 1
 -15 1 1 2 0 0 -2.24872 1.9176 3.04524 4.60056 1.7768 0. -1
</event>
<event>
 4 80 1 -1 -1 -1
 11 -1 0 0 0 0 0 0 5 5 0 0. 9.
 -11 -1 0 0 0 0 0 0 -5 5 0 0. 9.
 15 1 1 2 0 0 1.21195 -0.876435 4.42779 5 1.7768 0. 1
 -15 1 1 2 0 0 -1.21195 0.876435 -4.42779 5 1.7768 0. -1
</event>
<event>
 4 80 1 -1 -1 -1
 11 -1 0 0 0 0 0 0 4.99492 4.99492 0 0. 9.
 -11 -1 0 0 0 0 0 0 -5 5 0 0. 9.
 15 1 1 2 0 0 -1.35899 1.02233 -4.35281 4.99967 1.7768 0. -1
 -15 1 1 2 0 0 1.35899 -1.02233 4.34773 4.99525 1.7768 0. 1
</event>
<event>
 4 80 1 -1 -1 -1
 11 -1 0 0 0 0 0 0 4.78754 4.78754 0 0. 9.
 -11 -1 0 0 0 0 0 0 -5 5 0 0. 9.
 15 1 1 2 0 0 1.00339 0.0487894 -4.55372 4.99031 1.7768 0. 1
 -15 1 1 2 0 0 -1.00339 -0.0487894 4.34126 4.79723 1.7768 0. -1
</event>
<event>
 4 80 1 -1 -1 -1
 11 -1 0 0 0 0 0 0 4.99731 4.99731 0 0. 9.
 -11 -1 0 0 0 0 0 0 -4.96425 4.96425 0 0. 9.
 15 1 1 2 0 0 -4.61787 0.0372018 0.585754 4.98267 1.7768 0. -1
 -15 1 1 2 0 0 4.61787 -0.0372018 -0.552698 4.97889 1.7768 0. 1
</event>
<event>
 4 80 1 -1 -1 -1
 11 -1 0 0 0 0 0 0 5 5 0 0. 9.
 -11 -1 0 0 0 0 0 0 -4.19051 4.19051 0 0. 9.
 15 1 1 2 0 0 -0.772437 4.13781 0.682774 4.61974 1.7768 0. 1
 -15 1 1 2 0 0 0.772437 -4.13781 0.126719 4.57076 1.7768 0. -1
</event>
<event>
 4 80 1 -1 -1 -1
 11 -1 0 0 0 0 0 0 5 5 0 0. 9.
 -11 -1 0 0 0 0 0 0 -4.86783 4.86783 0 0. 9.
 15 1 1 2 0 0 0.0863357 1.45483 -4.29979 4.87544 1.7768 0. -1
 -15 1 1 2 0 0 -0.0863357 -1.45483 4.43196 4.99239 1.7768 0. 1
</event>
<event>
 4 80 1 -1 -1 -1
 11 -1 0 0 0 0 0 0 4.97212 4.97212 0 0. 9.
 -11 -1 0 0 0 0 0 0 -5 5 0 0. 9.
 15 1 1 2 0 0 -2.73574 3.49918 -1.41906 4.98999 1.7768 0. 1
 -15 1 1 2 0 0 2.73574 -3.49918 1.39118 4.98213 1.7768 0. -1
</event>
<event>
 4 80 1 -1 -1 -1
 11 -1 0 0 0 0 0 0 4.99992 4.99992 0 0. 9.
 -11 -1 0 0 0 0 0 0 -5 5 0 0. 9.
 15 1 1 2 0 0 1.56765 4.11013 -1.57838 4.99997 1.7768 0. 1
 -15 1 1 2 0 0 -1.56765 -4.11013 1.5783 4.99995 1.7768 0. -1
</event>
<event>
 4 80 1 -1 -1 -1
 11 -1 0 0 0 0 0 0 5 5 0 0. 9.
 -11 -1 0 0 0 0 0 0 -5 5 0 0. 9.
 15 1 1 2 0 0 -0.152965 -0.737978 4.6124 5 1.7768 0. -1
 -15 1 1 2 0 0 0.152965 0.737978 -4.6124 5 1.7768 0. 1
</event>
<event>
 4 80 1 -1 -1 -1
 11 -1 0 0 0 0 0 0 5 5 0 0. 9.
 -11 -1 0 0 0 0 0 0 -4.99988 4.99988 0 0. 9.
 15 1 1 2 0 0 1.41151 0.290856 -4.44569 4.99989 1.7768 0. -1
 -15 1 1 2 0 0 -1.41151 -0.290856 4.44581 4.99999 1.7768 0. 1
</event>
<event>
 4 80 1 -1 -1 -1
 11 -1 0 0 0 0 0 0 4.98192 4.98192 0 0. 9.
 -11 -1 0 0 0 0 0 0 -4.99811 4.99811 0 0. 9.
 15 1 1 2 0 0 2.46313 -0.499598 -3.93568 4.99639 1.7768 0. 1
 -15 1 1 2 0 0 -2.46313 0.499598 3.91949 4.98364 1.7768 0. -1
</event>
<event>
 4 80 1 -1 -1 -1
 11 -1 0 0 0 0 0 0 5 5 0 0. 9.
 -11 -1 0 0 0 0 0 0 -5 5 0 0. 9.
 15 1 1 2 0 0 0.976157 -0.888224 4.48335 5 1.7768 0. 1
 -15 1 1 2 0 0 -0.976157 0.888224 -4.48335 5 1.7768 0. -1
</event>
<event>
 4 80 1 -1 -1 -1
 11 -1 0 0 0 0 0 0 4.99252 4.99252 0 0. 9.
 -11 -1 0 0 0 0 0 0 -5 5 0 0. 9.
 15 1 1 2 0 0 -3.81571 0.443918 2.65111 4.99427 1.7768 0. 1
 -15 1 1 2 0 0 3.81571 -0.443918 -2.65858 4.99825 1.7768 0. -1
</event>
<event>
 4 80 1 -1 -1 -1
 11 -1 0 0 0 0 0 0 4.99656 4.99656 0 0. 9.
 -11 -1 0 0 0 0 0 0 -5 5 0 0. 9.
 15 1 1 2 0 0 -0.904387 4.50606 0.836507 4.99799 1.7768 0. 1
 -15 1 1 2 0 0 0.904387 -4.50606 -0.839944 4.99857 1.7768 0. -1
</event>
<event>
 4 80 1 -1 -1 -1
 11 -1 0 0 0 0 0 0 4.96949 4.96949 0 0. 9.
 -11 -1 0 0 0 0 0 0 -5 5 0 0. 9.
 15 1 1 2 0 0 -1.56315 -1.22733 4.19664 4.97185 1.7768 0. -1
 -15 1 1 2 0 0 1.56315 1.22733 -4.22715 4.99763 1.7768 0. 1
</event>
<event>
 4 80 1 -1 -1 -1
 11 -1 0 0 0 0 0 0 4.99952 4.99952 0 0. 9.
 -11 -1 0 0 0 0 0 0 -5 5 0 0. 9.
 15 1 1 2 0 0 -0.77531 -4.33199 -1.57269 4.99984 1.7768 0. -1
 -15 1 1 2 0 0 0.77531 4.33199 1.57222 4.99969 1.7768 0. 1
</event>
<event>
 4 80 1 -1 -1 -1
 11 -1 0 0 0 0 0 0 4.60777 4.60777 0 0. 9.
 -11 -1 0 0 0 0 0 0 -5 5 0 0. 9.
 15 1 1 2 0 0 0.0540977 -4.31472 0.927914 4.75799 1.7768 0. -1
 -15 1 1 2 0 0 -0.0540977 4.31472 -1.32015 4.84977 1.7768 0. 1
</event>
<event>
 4 80 1 -1 -1 -1
 11 -1 0 0 0 0 0 0 5 5 0 0. 9.
 -11 -1 0 0 0 0 0 0 -5 5 0 0. 9.
 15 1 1 2 0 0 1.3269 1.76105 -4.12072 5 1.7768 0. 1
 -15 1 1 2 0 0 -1.3269 -1.76105 4.12072 5 1.7768 0. -1
</event>
<event>
 4 80 1 -1 -1 -1
 11 -1 0 0 0 0 0 0 5 5 0 0. 9.
 -11 -1 0 0 0 0 0 0 -5 5 0 0. 9.
 15 1 1 2 0 0 1.47858 -0.290223 4.42401 5 1.7768 0. 1
 -15 1 1 2 0 0 -1.47858 0.290223 -4.42401 5 1.7768 0. -1
</event>
<event>
 4 80 1 -1 -1 -1
 11 -1 0 0 0 0 0 0 4.9953 4.9953 0 0. 9.
 -11 -1 0 0 0 0 0 0 -5 5 0 0. 9.
 15 1 1 2 0 0 4.48294 -0.466317 1.22426 4.99707 1.7768 0. 1
 -15 1 1 2 0 0 -4.48294 0.466317 -1.22895 4.99823 1.7768 0. -1
</event>
<event>
 4 80 1 -1 -1 -1
 11 -1 0 0 0 0 0 0 5 5 0 0. 9.
 -11 -1 0 0 0 0 0 0 -4.97959 4.97959 0 0. 9.
 15 1 1 2 0 0 -0.48119 -3.42986 -3.11146 4.98341 1.7768 0. -1
 -15 1 1 2 0 0 0.48119 3.42986 3.13186 4.99618 1.7768 0. 1
</event>
<event>
 4 80 1 -1 -1 -1
 11 -1 0 0 0 0 0 0 5 5 0 0. 9.
 -11 -1 0 0 0 0 0 0 -5 5 0 0. 9.
 15 1 1 2 0 0 -3.04218 -3.54788 0.00111814 5 1.7768 0. 1
 -15 1 1 2 0 0 3.04218 3.54788 -0.00111813 5 1.7768 0. -1
</event>
<event>
 4 80 1 -1 -1 -1
 11 -1 0 0 0 0 0 0 5 5 0 0. 9.
 -11 -1 0 0 0 0 0 0 -5 5 0 0. 9.
 15 1 1 2 0 0 -2.10984 -2.84224 3.05164 5 1.7768 0. 1
 -15 1 1 2 0 0 2.10984 2.84224 -3.05164 5 1.7768 0. -1
</event>
<event>
 4 80 1 -1 -1 -1
 11 -1 0 0 0 0 0 0 5 5 0 0. 9.
 -11 -1 0 0 0 0 0 0 -2.97863 2.97863 0 0. 9.
 15 1 1 2 0 0 1.19357 1.79538 3.76269 4.68653 1.7768 0. 1
 -15 1 1 2 0 0 -1.19357 -1.79538 -1.74132 3.2921 1.7768 0. -1
</event>
<event>
 4 80 1 -1 -1 -1
 11 -1 0 0 0 0 0 0 4.99977 4.99977 0 0. 9.
 -11 -1 0 0 0 0 0 0 -4.9976 4.9976 0 0. 9.
 15 1 1 2 0 0 -1.87472 -2.7909 -3.24321 4.99798 1.7768 0. -1
 -15 1 1 2 0 0 1.87472 2.7909 3.24538 4.99939 1.7768 0. 1
</event>
<event>
 4 80 1 -1 -1 -1
 11 -1 0 0 0 0 0 0 4.9982 4.9982 0 0. 9.
 -11 -1 0 0 0 0 0 0 -2.82172 2.82172 0 0. 9.
 15 1 1 2 0 0 2.52351 -1.95366 0.18006 3.65719 1.7768 0. 1
 -15 1 1 2 0 0 -2.52351 1.95366 1.99642 4.16273 1.7768 0. -1
</event>
<event>
 4 80 1 -1 -1 -1
 11 -1 0 0 0 0 0 0 1.27445 1.27445 0 0. 9.
 -11 -1 0 0 0 0 0 0 -5 5 0 0. 9.
 15 1 1 2 0 0 -0.0317775 -1.38028 -3.28432 3.98129 1.7768 0. -1
 -15 1 1 2 0 0 0.0317775 1.38028 -0.441233 2.29316 1.7768 0. 1
</event>
<event>
 4 80 1 -1 -1 -1
 11 -1 0 0 0 0 0 0 5 5 0 0. 9.
 -11 -1 0 0 0 0 0 0 -5 5 0 0. 9.
 15 1 1 2 0 0 0.188117 4.63422 0.575223 5 1.7768 0. 1
 -15 1 1 2 0 0 -0.188117 -4.63422 -0.575224 5 1.7768 0. -1
</event>
<event>
 4 80 1 -1 -1 -1
 11 -1 0 0 0 0 0 0 5 5 0 0. 9.
 -11 -1 0 0 0 0 0 0 -4.99433 4.99433 0 0. 9.
 15 1 1 2 0 0 0.462794 -1.5321 -4.38492 4.99467 1.7768 0. 1
 -15 1 1 2 0 0 -0.462794 1.5321 4.39059 4.99965 1.7768 0. -1
</event>
<event>
 4 80 1 -1 -1 -1
 11 -1 0 0 0 0 0 0 4.92305 4.92305 0 0. 9.
 -11 -1 0 0 0 0 0 0 -5 5 0 0. 9.
 15 1 1 2 0 0 -0.874656 -0.718182 4.45351 4.92669 1.7768 0. -1
 -15 1 1 2 0 0 0.874656 0.718182 -4.53046 4.99636 1.7768 0. 1
</event>
<event>
 4 80 1 -1 -1 -1
 11 -1 0 0 0 0 0 0 5 5 0 0. 9.
 -11 -1 0 0 0 0 0 0 -4.98386 4.98386 0 0. 9.
 15 1 1 2 0 0 -4.06366 -1.07071 -2.01721 4.98865 1.7768 0. 1
 -15 1 1 2 0 0 4.06366 1.07071 2.03336 4.9952 1.7768 0. -1
</event>
<event>
 4 80 1 -1 -1 -1
 11 -1 0 0 0 0 0 0 5 5 0 0. 9.
 -11 -1 0 0 0 0 0 0 -0.837579 0.837579 0 0. 9.
 15 1 1 2 0 0 -0.851161 0.0456517 2.8671 3.47916 1.7768 0. 1
 -15 1 1 2 0 0 0.851161 -0.0456517 1.29533 2.35842 1.7768 0. -1
</event>
<event>
 4 80 1 -1 -1 -1
 11 -1 0 0 0 0 0 0 5 5 0 0. 9.
 -11 -1 0 0 0 0 0 0 -5 5 0 0. 9.
 15 1 1 2 0 0 3.72085 -2.81168 0.303397 5 1.7768 0. -1
 -15 1 1 2 0 0 -3.72085 2.81168 -0.303397 5 1.7768 0. 1
</event>
<event>
 4 80 1 -1 -1 -1
 11 -1 0 0 0 0 0 0 4.98325 4.98325 0 0. 9.
 -11 -1 0 0 0 0 0 0 -4.88287 4.88287 0 0. 9.
 15 1 1 2 0 0 -2.00895 -2.62516 -3.15115 4.90049 1.7768 0. 1
 -15 1 1 2 0 0 2.00895 2.62516 3.25152 4.96563 1.7768 0. -1
</event>
<event>
 4 80 1 -1 -1 -1
 11 -1 0 0 0 0 0 0 5 5 0 0. 9.
 -11 -1 0 0 0 0 0 0 -5 5 0 0. 9.
 15 1 1 2 0 0 4.25006 -1.22241 -1.51161 5 1.7768 0. 1
 -15 1 1 2 0 0 -4.25006 1.22241 1.51161 5 1.7768 0. -1
</event>
<event>
 4 80 1 -1 -1 -1
 11 -1 0 0 0 0 0 0 5 5 0 0. 9.
 -11 -1 0 0 0 0 0 0 -5 5 0 0. 9.
 15 1 1 2 0 0 3.91352 -0.566447 -2.49113 5 1.7768 0. 1
 -15 1 1 2 0 0 -3.91352 0.566447 2.49113 5 1.7768 0. -1
</event>
<event>
 4 80 1 -1 -1 -1
 11 -1 0 0 0 0 0 0 4.97917 4.97917 0 0. 9.
 -11 -1 0 0 0 0 0 0 -4.99963 4.99963 0 0. 9.
 15 1 1 2 0 0 -4.1148 0.660235 2.07994 4.98511 1.7768 0. -1
 -15 1 1 2 0 0 4.1148 -0.660235 -2.1004 4.99368 1.7768 0. 1
</event>
<event>
 4 80 1 -1 -1 -1
 11 -1 0 0 0 0 0 0 4.91436 4.91436 0 0. 9.
 -11 -1 0 0 0 0 0 0 -5 5 0 0. 9.
 15 1 1 2 0 0 2.25762 1.97202 -3.56834 4.98763 1.7768 0. 1
 -15 1 1 2 0 0 -2.25762 -1.97202 3.4827 4.92673 1.7768 0. -1
</event>
<event>
 4 80 1 -1 -1 -1
 11 -1 0 0 0 0 0 0 4.9972 4.9972 0 0. 9.
 -11 -1 0 0 0 0 0 0 -5 5 0 0. 9.
 15 1 1 2 0 0 3.20651 1.60395 2.99425 4.99776 1.7768 0. -1
 -15 1 1 2 0 0 -3.20651 -1.60395 -2.99705 4.99944 1.7768 0. 1
</event>
<event>
 4 80 1 -1 -1 -1
 11 -1 0 0 0 0 0 0 4.93109 4.93109 0 0. 9.
 -11 -1 0 0 0 0 0 0 -5 5 0 0. 9.
 15 1 1 2 0 0 -3.84721 2.55462 0.378599 4.96268 1.7768 0. -1
 -15 1 1 2 0 0 3.84721 -2.55462 -0.447509 4.96841 1.7768 0. 1
</event>
<event>
 4 80 1 -1 -1 -1
 11 -1 0 0 0 0 0 0 4.97526 4.97526 0 0. 9.
 -11 -1 0 0 0 0 0 0 -4.82192 4.82192 0 0. 9.
 15 1 1 2 0 0 0.132291 1.03287 4.52112 4.96815 1.7768 0. -1
 -15 1 1 2 0 0 -0.132291 -1.03287 -4.36777 4.82903 1.7768 0. 1
</event>
<event>
 4 80 1 -1 -1 -1
 11 -1 0 0 0 0 0 0 4.99999 4.99999 0 0. 9.
 -11 -1 0 0 0 0 0 0 -4.95493 4.95493 0 0. 9.
 15 1 1 2 0 0 -3.19136 -3.19617 -1.08047 4.97247 1.7768 0. 1
 -15 1 1 2 0 0 3.19136 3.19617 1.12553 4.98245 1.7768 0. -1
</event>
<event>
 4 80 1 -1 -1 -1
 11 -1 0 0 0 0 0 0 5 5 0 0. 9.
 -11 -1 0 0 0 0 0 0 -5 5 0 0. 9.
 15 1 1 2 0 0 -2.04265 -2.88194 3.06011 5 1.7768 0. -1
 -15 1 1 2 0 0 2.04265 2.88194 -3.06011 5 1.7768 0. 1
</event>
<event>
 4 80 1 -1 -1 -1
 11 -1 0 0 0 0 0 0 5 5 0 0. 9.
 -11 -1 0 0 0 0 0 0 -5 5 0 0. 9.
 15 1 1 2 0 0 0.823502 -2.42015 -3.91242 5 1.7768 0. -1
 -15 1 1 2 0 0 -0.823502 2.42015 3.91242 5 1.7768 0. 1
</event>
<event>
 4 80 1 -1 -1 -1
 11 -1 0 0 0 0 0 0 5 5 0 0. 9.
 -11 -1 0 0 0 0 0 0 -5 5 0 0. 9.
 15 1 1 2 0 0 0.254573 0.166202 -4.66367 5 1.7768 0. 1
 -15 1 1 2 0 0 -0.254573 -0.166202 4.66367 5 1.7768 0. -1
</event>
<event>
 4 80 1 -1 -1 -1
 11 -1 0 0 0 0 0 0 5 5 0 0. 9.
 -11 -1 0 0 0 0 0 0 -5 5 0 0. 9.
 15 1 1 2 0 0 3.93179 2.06627 -1.45389 5 1.7768 0. 1
 -15 1 1 2 0 0 -3.93179 -2.06627 1.45389 5 1.7768 0. -1
</event>
<event>
 4 80 1 -1 -1 -1
 11 -1 0 0 0 0 0 0 5 5 0 0. 9.
 -11 -1 0 0 0 0 0 0 -5 5 0 0. 9.
 15 1 1 2 0 0 2.59212 2.12665 3.25584 5 1.7768 0. -1
 -15 1 1 2 0 0 -2.59212 -2.12665 -3.25584 5 1.7768 0. 1
</event>
<event>
 4 80 1 -1 -1 -1
 11 -1 0 0 0 0 0 0 4.99795 4.99795 0 0. 9.
 -11 -1 0 0 0 0 0 0 -1.69484 1.69484 0 0. 9.
 15 1 1 2 0 0 1.19497 -1.88316 2.32074 3.67666 1.7768 0. 1
 -15 1 1 2 0 0 -1.19497 1.88316 0.982366 3.01613 1.7768 0. -1
</event>
<event>
 4 80 1 -1 -1 -1
 11 -1 0 0 0 0 0 0 5 5 0 0. 9.
 -11 -1 0 0 0 0 0 0 -5 5 0 0. 9.
 15 1 1 2 0 0 2.00023 -1.07411 -4.08505 5 1.7768 0. 1
 -15 1 1 2 0 0 -2.00023 1.07411 4.08505 5 1.7768 0. -1
</event>
<event>
 4 80 1 -1 -1 -1
 11 -1 0 0 0 0 0 0 5 5 0 0. 9.
 -11 -1 0 0 0 0 0 0 -5 5 0 0. 9.
 15 1 1 2 0 0 -2.0863 0.0354627 -4.18191 5 1.7768 0. -1
 -15 1 1 2 0 0 2.0863 -0.0354627 4.18191 5 1.7768 0. 1
</event>
<event>
 4 80 1 -1 -1 -1
 11 -1 0 0 0 0 0 0 5 5 0 0. 9.
 -11 -1 0 0 0 0 0 0 -4.99693 4.99693 0 0. 9.
 15 1 1 2 0 0 -2.16086 -0.197414 4.139 4.99974 1.7768 0. 1
 -15 1 1 2 0 0 2.16086 0.197414 -4.13593 4.99719 1.7768 0. -1
</event>
<event>
 4 80 1 -1 -1 -1
 11 -1 0 0 0 0 0 0 5 5 0 0. 9.
 -11 -1 0 0 0 0 0 0 -0.977226 0.977226 0 0. 9.
 15 1 1 2 0 0 0.7705 -0.715813 3.07799 3.70645 1.7768 0. -1
 -15 1 1 2 0 0 -0.7705 0.715813 0.944786 2.27077 1.7768 0. 1
</event>
<event>
 4 80 1 -1 -1 -1
 11 -1 0 0 0 0 0 0 5 5 0 0. 9.
 -11 -1 0 0 0 0 0 0 -5 5 0 0. 9.
 15 1 1 2 0 0 0.237542 -0.95685 4.5684 5 1.7768 0. -1
 -15 1 1 2 0 0 -0.237542 0.95685 -4.5684 5 1.7768 0. 1
</event>
<event>
 4 80 1 -1 -1 -1
 11 -1 0 0 0 0 0 0 5 5 0 0. 9.
 -11 -1 0 0 0 0 0 0 -5 5 0 0. 9.
 15 1 1 2 0 0 3.42061 3.14149 -0.522236 5 1.7768 0. -1
 -15 1 1 2 0 0 -3.42061 -3.14149 0.522236 5 1.7768 0. 1
</event>
<event>
 4 80 1 -1 -1 -1
 11 -1 0 0 0 0 0 0 5 5 0 0. 9.
 -11 -1 0 0 0 0 0 0 -5 5 0 0. 9.
 15 1 1 2 0 0 -3.71982 2.75665 -0.637268 5 1.7768 0. -1
 -15 1 1 2 0 0 3.71982 -2.75665 0.637268 5 1.7768 0. 1
</event>
<event>
 4 80 1 -1 -1 -1
 11 -1 0 0 0 0 0 0 4.63135 4.63135 0 0. 9.
 -11 -1 0 0 0 0 0 0 -5 5 0 0. 9.
 15 1 1 2 0 0 -2.02549 -3.75468 -1.52651 4.86705 1.7768 0. 1
 -15 1 1 2 0 0 2.02549 3.75468 1.15786 4.7643 1.7768 0. -1
</event>
<event>
 4 80 1 -1 -1 -1
 11 -1 0 0 0 0 0 0 5 5 0 0. 9.
 -11 -1 0 0 0 0 0 0 -4.99958 4.99958 0 0. 9.
 15 1 1 2 0 0 2.32598 -0.472363 -4.02556 4.99962 1.7768 0. 1
 -15 1 1 2 0 0 -2.32598 0.472363 4.02599 4.99996 1.7768 0. -1
</event>
<event>
 4 80 1 -1 -1 -1
 11 -1 0 0 0 0 0 0 4.14034 4.14034 0 0. 9.
 -11 -1 0 0 0 0 0 0 -4.98427 4.98427 0 0. 9.
 15 1 1 2 0 0 0.0473171 0.982575 -4.50285 4.93975 1.7768 0. -1
 -15 1 1 2 0 0 -0.0473171 -0.982575 3.65892 4.18486 1.7768 0. 1
</event>
<event>
 4 80 1 -1 -1 -1
 11 -1 0 0 0 0 0 0 4.99995 4.99995 0 0. 9.
 -11 -1 0 0 0 0 0 0 -5 5 0 0. 9.
 15 1 1 2 0 0 2.86746 -2.91206 2.26704 4.99996 1.7768 0. -1
 -15 1 1 2 0 0 -2.86746 2.91206 -2.26709 4.99998 1.7768 0. 1
</event>
<event>
 4 80 1 -1 -1 -1
 11 -1 0 0 0 0 0 0 5 5 0 0. 9.
 -11 -1 0 0 0 0 0 0 -4.99625 4.99625 0 0. 9.
 15 1 1 2 0 0 -0.535771 -4.60025 0.613555 4.99835 1.7768 0. 1
 -15 1 1 2 0 0 0.535771 4.60025 -0.609802 4.99789 1.7768 0. -1
</event>
<event>
 4 80 1 -1 -1 -1
 11 -1 0 0 0 0 0 0 3.54472 3.54472 0 0. 9.
 -11 -1 0 0 0 0 0 0 -4.93288 4.93288 0 0. 9.
 15 1 1 2 0 0 -1.16892 -2.02468 2.32361 3.74467 1.7768 0. -1
 -15 1 1 2 0 0 1.16892 2.02468 -3.71176 4.73293 1.7768 0. 1
</event>
<event>
 4 80 1 -1 -1 -1
 11 -1 0 0 0 0 0 0 5 5 0 0. 9.
 -11 -1 0 0 0 0 0 0 -5 5 0 0. 9.
 15 1 1 2 0 0 1.88814 1.7497 -3.90074 5 1.7768 0. -1
 -15 1 1 2 0 0 -1.88814 -1.7497 3.90074 5 1.7768 0. 1
</event>
<event>
 4 80 1 -1 -1 -1
 11 -1 0 0 0 0 0 0 4.47721 4.47721 0 0. 9.
 -11 -1 0 0 0 0 0 0 -4.70672 4.70672 0 0. 9.
 15 1 1 2 0 0 -2.61797 -2.16073 -2.64393 4.65517 1.7768 0. 1
 -15 1 1 2 0 0 2.61797 2.16073 2.41442 4.52876 1.7768 0. -1
</event>
<event>
 4 80 1 -1 -1 -1
 11 -1 0 0 0 0 0 0 5 5 0 0. 9.
 -11 -1 0 0 0 0 0 0 -1.66208 1.66208 0 0. 9.
 15 1 1 2 0 0 -1.66671 1.52496 1.41257 3.20258 1.7768 0. 1
 -15 1 1 2 0 0 1.66671 -1.52496 1.92535 3.4595 1.7768 0. -1
</event>
<event>
 4 80 1 -1 -1 -1
 11 -1 0 0 0 0 0 0 4.32337 4.32337 0 0. 9.
 -11 -1 0 0 0 0 0 0 -5 5 0 0. 9.
 15 1 1 2 0 0 -0.836468 -3.22661 -3.05628 4.85894 1.7768 0. 1
 -15 1 1 2 0 0 0.836468 3.22661 2.37964 4.46443 1.7768 0. -1
</event>
<event>
 4 80 1 -1 -1 -1
 11 -1 0 0 0 0 0 0 5 5 0 0. 9.
 -11 -1 0 0 0 0 0 0 -4.84167 4.84167 0 0. 9.
 15 1 1 2 0 0 3.82902 1.855 -1.63808 4.89321 1.7768 0. -1
 -15 1 1 2 0 0 -3.82902 -1.855 1.79641 4.94846 1.7768 0. 1
</event>
<event>
 4 80 1 -1 -1 -1
 11 -1 0 0 0 0 0 0 5 5 0 0. 9.
 -11 -1 0 0 0 0 0 0 -5 5 0 0. 9.
 15 1 1 2 0 0 -0.862354 -3.2379 3.25801 5 1.7768 0. 1
 -15 1 1 2 0 0 0.862354 3.2379 -3.25801 5 1.7768 0. -1
</event>
<event>
 4 80 1 -1 -1 -1
 11 -1 0 0 0 0 0 0 5 5 0 0. 9.
 -11 -1 0 0 0 0 0 0 -5 5 0 0. 9.
 15 1 1 2 0 0 -2.87386 -3.61181 -0.733474 5 1.7768 0. -1
 -15 1 1 2 0 0 2.87386 3.61181 0.733474 5 1.7768 0. 1
</event>
<event>
 4 80 1 -1 -1 -1
 11 -1 0 0 0 0 0 0 4.99462 4.99462 0 0. 9.
 -11 -1 0 0 0 0 0 0 -5 5 0 0. 9.
 15 1 1 2 0 0 -3.86421 -1.92322 1.78182 4.99635 1.7768 0. 1
 -15 1 1 2 0 0 3.86421 1.92322 -1.7872 4.99827 1.7768 0. -1
</event>
<event>
 4 80 1 -1 -1 -1
 11 -1 0 0 0 0 0 0 5 5 0 0. 9.
 -11 -1 0 0 0 0 0 0 -5 5 0 0. 9.
 15 1 1 2 0 0 1.10082 -2.03718 -4.0596 5 1.7768 0. -1
 -15 1 1 2 0 0 -1.10082 2.03718 4.0596 5 1.7768 0. 1
</event>
<event>
 4 80 1 -1 -1 -1
 11 -1 0 0 0 0 0 0 5 5 0 0. 9.
 -11 -1 0 0 0 0 0 0 -4.79019 4.79019 0 0. 9.
 15 1 1 2 0 0 1.07504 4.38425 0.749926 4.90892 1.7768 0. 1
 -15 1 1 2 0 0 -1.07504 -4.38425 -0.540117 4.88127 1.7768 0. -1
</event>
<event>
 4 80 1 -1 -1 -1
 11 -1 0 0 0 0 0 0 4.99685 4.99685 0 0. 9.
 -11 -1 0 0 0 0 0 0 -4.99645 4.99645 0 0. 9.
 15 1 1 2 0 0 1.64435 -1.72501 -4.01592 4.99649 1.7768 0. -1
 -15 1 1 2 0 0 -1.64435 1.72501 4.01633 4.99681 1.7768 0. 1
</event>
<event>
 4 80 1 -1 -1 -1
 11 -1 0 0 0 0 0 0 4.99845 4.99845 0 0. 9.
 -11 -1 0 0 0 0 0 0 -5 5 0 0. 9.
 15 1 1 2 0 0 -1.50494 -2.4244 3.69949 4.99865 1.7768 0. 1
 -15 1 1 2 0 0 1.50494 2.4244 -3.70104 4.9998 1.7768 0. -1
</event>
<event>
 4 80 1 -1 -1 -1
 11 -1 0 0 0 0 0 0 4.988 4.988 0 0. 9.
 -11 -1 0 0 0 0 0 0 -5 5 0 0. 9.
 15 1 1 2 0 0 1.0457 -2.76385 -3.61847 4.99834 1.7768 0. 1
 -15 1 1 2 0 0 -1.0457 2.76385 3.60647 4.98966 1.7768 0. -1
</event>
<event>
 4 80 1 -1 -1 -1
 11 -1 0 0 0 0 0 0 4.9957 4.9957 0 0. 9.
 -11 -1 0 0 0 0 0 0 -5 5 0 0. 9.
 15 1 1 2 0 0 -0.430429 1.77554 4.29704 4.996 1.7768 0. -1
 -15 1 1 2 0 0 0.430429 -1.77554 -4.30133 4.9997 1.7768 0. 1
</event>
<event>
 4 80 1 -1 -1 -1
 11 -1 0 0 0 0 0 0 4.85033 4.85033 0 0. 9.
 -11 -1 0 0 0 0 0 0 -5 5 0 0. 9.
 15 1 1 2 0 0 0.772672 -4.16092 -1.85932 4.95228 1.7768 0. 1
 -15 1 1 2 0 0 -0.772672 4.16092 1.70964 4.89805 1.7768 0. -1
</event>
<event>
 4 80 1 -1 -1 -1
 11 -1 0 0 0 0 0 0 5 5 0 0. 9.
 -11 -1 0 0 0 0 0 0 -5 5 0 0. 9.
 15 1 1 2 0 0 2.59843 2.16805 3.22335 5 1.7768 0. 1
 -15 1 1 2 0 0 -2.59843 -2.16805 -3.22335 5 1.7768 0. -1
</event>
<event>
 4 80 1 -1 -1 -1
 11 -1 0 0 0 0 0 0 4.80254 4.80254 0 0. 9.
 -11 -1 0 0 0 0 0 0 -5 5 0 0. 9.
 15 1 1 2 0 0 -3.67294 1.9676 1.77061 4.86361 1.7768 0. -1
 -15 1 1 2 0 0 3.67294 -1.9676 -1.96808 4.93892 1.7768 0. 1
</event>
<event>
 4 80 1 -1 -1 -1
 11 -1 0 0 0 0 0 0 5 5 0 0. 9.
 -11 -1 0 0 0 0 0 0 -4.33267 4.33267 0 0. 9.
 15 1 1 2 0 0 3.74368 -1.90327 1.26775 4.73313 1.7768 0. -1
 -15 1 1 2 0 0 -3.74368 1.90327 -0.600417 4.59954 1.7768 0. 1
</event>
<event>
 4 80 1 -1 -1 -1
 11 -1 0 0 0 0 0 0 4.51883 4.51883 0 0. 9.
 -11 -1 0 0 0 0 0 0 -4.99999 4.99999 0 0. 9.
 15 1 1 2 0 0 2.85485 0.183823 -3.59934 4.92919 1.7768 0. -1
 -15 1 1 2 0 0 -2.85485 -0.183823 3.11817 4.58963 1.7768 0. 1
</event>
<event>
 4 80 1 -1 -1 -1
 11 -1 0 0 0 0 0 0 4.99059 4.99059 0 0. 9.
 -11 -1 0 0 0 0 0 0 -3.08299 3.08299 0 0. 9.
 15 1 1 2 0 0 -1.09681 -0.258936 -2.45297 3.23184 1.7768 0. 1
 -15 1 1 2 0 0 1.09681 0.258936 4.36057 4.84173 1.7768 0. -1
</event>
<event>
 4 80 1 -1 -1 -1
 11 -1 0 0 0 0 0 0 4.92366 4.92366 0 0. 9.
 -11 -1 0 0 0 0 0 0 -5 5 0 0. 9.
 15 1 1 2 0 0 -2.50676 1.83523 -3.47464 4.98827 1.7768 0. 1
 -15 1 1 2 0 0 2.50676 -1.83523 3.3983 4.93539 1.7768 0. -1
</event>
<event>
 4 80 1 -1 -1 -1
 11 -1 0 0 0 0 0 0 4.98419 4.98419 0 0. 9.
 -11 -1 0 0 0 0 0 0 -5 5 0 0. 9.
 15 1 1 2 0 0 -1.00347 0.411845 4.52936 4.98491 1.7768 0. -1
 -15 1 1 2 0 0 1.00347 -0.411845 -4.54516 4.99928 1.7768 0. 1
</event>
<event>
 4 80 1 -1 -1 -1
 11 -1 0 0 0 0 0 0 5 5 0 0. 9.
 -11 -1 0 0 0 0 0 0 -5 5 0 0. 9.
 15 1 1 2 0 0 3.79526 -2.33688 1.40614 5 1.7768 0. -1
 -15 1 1 2 0 0 -3.79526 2.33688 -1.40614 5 1.7768 0. 1
</event>
<event>
 4 80 1 -1 -1 -1
 11 -1 0 0 0 0 0 0 4.99977 4.99977 0 0. 9.
 -11 -1 0 0 0 0 0 0 -5 5 0 0. 9.
 15 1 1 2 0 0 -2.45548 1.11 3.81821 4.9998 1.7768 0. -1
 -15 1 1 2 0 0 2.45548 -1.11 -3.81844 4.99997 1.7768 0. 1
</event>
<event>
 4 80 1 -1 -1 -1
 11 -1 0 0 0 0 0 0 5 5 0 0. 9.
 -11 -1 0 0 0 0 0 0 -5 5 0 0. 9.
 15 1 1 2 0 0 -1.23742 -4.26523 -1.45563 5 1.7768 0. -1
 -15 1 1 2 0 0 1.23742 4.26523 1.45563 5 1.7768 0. 1
</event>
<event>
 4 80 1 -1 -1 -1
 11 -1 0 0 0 0 0 0 5 5 0 0. 9.
 -11 -1 0 0 0 0 0 0 -2.69202 2.69202 0 0. 9.
 15 1 1 2 0 0 2.04326 -1.67395 3.06563 4.41959 1.7768 0. -1
 -15 1 1 2 0 0 -2.04326 1.67395 -0.757649 3.27243 1.7768 0. 1
</event>
<event>
 4 80 1 -1 -1 -1
 11 -1 0 0 0 0 0 0 5 5 0 0. 9.
 -11 -1 0 0 0 0 0 0 -4.73661 4.73661 0 0. 9.
 15 1 1 2 0 0 2.1378 1.5231 3.82565 4.96823 1.7768 0. 1
 -15 1 1 2 0 0 -2.1378 -1.5231 -3.56225 4.76837 1.7768 0. -1
</event>
<event>
 4 80 1 -1 -1 -1
 11 -1 0 0 0 0 0 0 4.67772 4.67772 0 0. 9.
 -11 -1 0 0 0 0 0 0 -5 5 0 0. 9.
 15 1 1 2 0 0 -4.4929 -0.20371 -0.104498 4.83697 1.7768 0. 1
 -15 1 1 2 0 0 4.4929 0.20371 -0.21778 4.84075 1.7768 0. -1
</event>
<event>
 4 80 1 -1 -1 -1
 11 -1 0 0 0 0 0 0 4.99993 4.99993 0 0. 9.
 -11 -1 0 0 0 0 0 0 -5 5 0 0. 9.
 15 1 1 2 0 0 0.0118618 -4.49185 -1.2904 4.99998 1.7768 0. 1
 -15 1 1 2 0 0 -0.0118618 4.49185 1.29034 4.99996 1.7768 0. -1
</event>
<event>
 4 80 1 -1 -1 -1
 11 -1 0 0 0 0 0 0 5 5 0 0. 9.
 -11 -1 0 0 0 0 0 0 -5 5 0 0. 9.
 15 1 1 2 0 0 -3.16228 -0.0458298 -3.44095 5 1.7768 0. -1
 -15 1 1 2 0 0 3.16228 0.0458298 3.44095 5 1.7768 0. 1
</event>
<event>
 4 80 1 -1 -1 -1
 11 -1 0 0 0 0 0 0 5 5 0 0. 9.
 -11 -1 0 0 0 0 0 0 -5 5 0 0. 9.
 15 1 1 2 0 0 2.62071 1.09791 -3.71063 5 1.7768 0. -1
 -15 1 1 2 0 0 -2.62071 -1.09791 3.71063 5 1.7768 0. 1
</event>
<event>
 4 80 1 -1 -1 -1
 11 -1 0 0 0 0 0 0 5 5 0 0. 9.
 -11 -1 0 0 0 0 0 0 -5 5 0 0. 9.
 15 1 1 2 0 0 2.27428 0.348602 4.06797 5 1.7768 0. -1
 -15 1 1 2 0 0 -2.27428 -0.348602 -4.06797 5 1.7768 0. 1
</event>
<event>
 4 80 1 -1 -1 -1
 11 -1 0 0 0 0 0 0 4.76515 4.76515 0 0. 9.
 -11 -1 0 0 0 0 0 0 -5 5 0 0. 9.
 15 1 1 2 0 0 1.91839 -2.39621 -3.4719 4.96325 1.7768 0. 1
 -15 1 1 2 0 0 -1.91839 2.39621 3.23704 4.8019 1.7768 0. -1
</event>
<event>
 4 80 1 -1 -1 -1
 11 -1 0 0 0 0 0 0 5 5 0 0. 9.
 -11 -1 0 0 0 0 0 0 -4.99931 4.99931 0 0. 9.
 15 1 1 2 0 0 1.68412 4.34853 -0.304395 4.99963 1.7768 0. -1
 -15 1 1 2 0 0 -1.68412 -4.34853 0.305087 4.99967 1.7768 0. 1
</event>
<event>
 4 80 1 -1 -1 -1
 11 -1 0 0 0 0 0 0 4.97653 4.97653 0 0. 9.
 -11 -1 0 0 0 0 0 0 -5 5 0 0. 9.
 15 1 1 2 0 0 -0.257474 0.524437 -4.63599 4.99914 1.7768 0. -1
 -15 1 1 2 0 0 0.257474 -0.524437 4.61252 4.97738 1.7768 0. 1
</event>
<event>
 4 80 1 -1 -1 -1
 11 -1 0 0 0 0 0 0 5 5 0 0. 9.
 -11 -1 0 0 0 0 0 0 -5 5 0 0. 9.
 15 1 1 2 0 0 -2.67948 -3.7795 -0.614807 5 1.7768 0. -1
 -15 1 1 2 0 0 2.67948 3.7795 0.614807 5 1.7768 0. 1
</event>
<event>
 4 80 1 -1 -1 -1
 11 -1 0 0 0 0 0 0 5 5 0 0. 9.
 -11 -1 0 0 0 0 0 0 -2.24814 2.24814 0 0. 9.
 15 1 1 2 0 0 0.222607 2.83414 1.41073 3.63728 1.7768 0. 1
 -15 1 1 2 0 0 -0.222607 -2.83414 1.34114 3.61086 1.7768 0. -1
</event>
<event>
 4 80 1 -1 -1 -1
 11 -1 0 0 0 0 0 0 5 5 0 0. 9.
 -11 -1 0 0 0 0 0 0 -4.99349 4.99349 0 0. 9.
 15 1 1 2 0 0 1.74222 -2.26492 -3.6906 4.99434 1.7768 0. -1
 -15 1 1 2 0 0 -1.74222 2.26492 3.69711 4.99915 1.7768 0. 1
</event>
<event>
 4 80 1 -1 -1 -1
 11 -1 0 0 0 0 0 0 5 5 0 0. 9.
 -11 -1 0 0 0 0 0 0 -4.99521 4.99521 0 0. 9.
 15 1 1 2 0 0 0.0564969 -2.09827 -4.17042 4.99561 1.7768 0. 1
 -15 1 1 2 0 0 -0.0564969 2.09827 4.17521 4.9996 1.7768 0. -1
</event>
<event>
 4 80 1 -1 -1 -1
 11 -1 0 0 0 0 0 0 4.99994 4.99994 0 0. 9.
 -11 -1 0 0 0 0 0 0 -5 5 0 0. 9.
 15 1 1 2 0 0 3.04539 2.56886 2.44303 4.99995 1.7768 0. -1
 -15 1 1 2 0 0 -3.04539 -2.56886 -2.44309 4.99998 1.7768 0. 1
</event>
<event>
 4 80 1 -1 -1 -1
 11 -1 0 0 0 0 0 0 5 5 0 0. 9.
 -11 -1 0 0 0 0 0 0 -1.84484 1.84484 0 0. 9.
 15 1 1 2 0 0 1.67242 1.14926 3.15063 4.14752 1.7768 0. 1
 -15 1 1 2 0 0 -1.67242 -1.14926 0.00453748 2.69732 1.7768 0. -1
</event>
<event>
 4 80 1 -1 -1 -1
 11 -1 0 0 0 0 0 0 5 5 0 0. 9.
 -11 -1 0 0 0 0 0 0 -4.98645 4.98645 0 0. 9.
 15 1 1 2 0 0 -4.52968 1.1097 -0.151603 4.99301 1.7768 0. -1
 -15 1 1 2 0 0 4.52968 -1.1097 0.165158 4.99344 1.7768 0. 1
</event>
<event>
 4 80 1 -1 -1 -1
 11 -1 0 0 0 0 0 0 4.99977 4.99977 0 0. 9.
 -11 -1 0 0 0 0 0 0 -5 5 0 0. 9.
 15 1 1 2 0 0 3.69103 -2.79394 -0.641435 4.9999 1.7768 0. 1
 -15 1 1 2 0 0 -3.69103 2.79394 0.641202 4.99987 1.7768 0. -1
</event>
<event>
 4 80 1 -1 -1 -1
 11 -1 0 0 0 0 0 0 4.99994 4.99994 0 0. 9.
 -11 -1 0 0 0 0 0 0 -5 5 0 0. 9.
 15 1 1 2 0 0 1.62859 -3.75819 2.25067 4.99995 1.7768 0. -1
 -15 1 1 2 0 0 -1.62859 3.75819 -2.25073 4.99998 1.7768 0. 1
</event>
<event>
 4 80 1 -1 -1 -1
 11 -1 0 0 0 0 0 0 5 5 0 0. 9.
 -11 -1 0 0 0 0 0 0 -4.99999 4.99999 0 0. 9.
 15 1 1 2 0 0 -4.45509 0.598477 1.27917 5 1.7768 0. -1
 -15 1 1 2 0 0 4.45509 -0.598477 -1.27916 5 1.7768 0. 1
</event>
<event>
 4 80 1 -1 -1 -1
 11 -1 0 0 0 0 0 0 1.65323 1.65323 0 0. 9.
 -11 -1 0 0 0 0 0 0 -4.40598 4.40598 0 0. 9.
 15 1 1 2 0 0 -1.21196 -0.800537 -2.97046 3.75381 1.7768 0. -1
 -15 1 1 2 0 0 1.21196 0.800537 0.217712 2.30539 1.7768 0. 1
</event>
<event>
 4 80 1 -1 -1 -1
 11 -1 0 0 0 0 0 0 4.99783 4.99783 0 0. 9.
 -11 -1 0 0 0 0 0 0 -5 5 0 0. 9.
 15 1 1 2 0 0 -4.19218 1.78696 1.03032 4.99869 1.7768 0. -1
 -15 1 1 2 0 0 4.19218 -1.78696 -1.03249 4.99914 1.7768 0. 1
</event>
<event>
 4 80 1 -1 -1 -1
 11 -1 0 0 0 0 0 0 4.99022 4.99022 0 0. 9.
 -11 -1 0 0 0 0 0 0 -4.93497 4.93497 0 0. 9.
 15 1 1 2 0 0 3.71579 2.4047 -1.34321 4.95496 1.7768 0. -1
 -15 1 1 2 0 0 -3.71579 -2.4047 1.39846 4.97022 1.7768 0. 1
</event>
<event>
 4 80 1 -1 -1 -1
 11 -1 0 0 0 0 0 0 5 5 0 0. 9.
 -11 -1 0 0 0 0 0 0 -5 5 0 0. 9.
 15 1 1 2 0 0 0.575256 -2.89508 3.62352 5 1.7768 0. -1
 -15 1 1 2 0 0 -0.575256 2.89508 -3.62352 5 1.7768 0. 1
</event>
<event>
 4 80 1 -1 -1 -1
 11 -1 0 0 0 0 0 0 1.10258 1.10258 0 0. 9.
 -11 -1 0 0 0 0 0 0 -5 5 0 0. 9.
 15 1 1 2 0 0 -1.52901 -0.0141756 -1.77875 2.94274 1.7768 0. -1
 -15 1 1 2 0 0 1.52901 0.0141756 -2.11867 3.15984 1.7768 0. 1
</event>
<event>
 4 80 1 -1 -1 -1
 11 -1 0 0 0 0 0 0 4.81337 4.81337 0 0. 9.
 -11 -1 0 0 0 0 0 0 -4.99994 4.99994 0 0. 9.
 15 1 1 2 0 0 -0.985026 -3.66395 2.45944 4.85813 1.7768 0. -1
 -15 1 1 2 0 0 0.985026 3.66395 -2.64601 4.95519 1.7768 0. 1
</event>
<event>
 4 80 1 -1 -1 -1
 11 -1 0 0 0 0 0 0 5 5 0 0. 9.
 -11 -1 0 0 0 0 0 0 -4.65443 4.65443 0 0. 9.
 15 1 1 2 0 0 -2.47104 -0.43154 -3.54741 4.69405 1.7768 0. 1
 -15 1 1 2 0 0 2.47104 0.43154 3.89299 4.96038 1.7768 0. -1
</event>
<event>
 4 80 1 -1 -1 -1
 11 -1 0 0 0 0 0 0 5 5 0 0. 9.
 -11 -1 0 0 0 0 0 0 -5 5 0 0. 9.
 15 1 1 2 0 0 -0.945899 -3.84689 2.47972 5 1.7768 0. -1
 -15 1 1 2 0 0 0.945899 3.84689 -2.47972 5 1.7768 0. 1
</event>
<event>
 4 80 1 -1 -1 -1
 11 -1 0 0 0 0 0 0 5 5 0 0. 9.
 -11 -1 0 0 0 0 0 0 -5 5 0 0. 9.
 15 1 1 2 0 0 -2.25983 4.08672 -0.184735 5 1.7768 0. -1
 -15 1 1 2 0 0 2.25983 -4.08672 0.184739 5 1.7768 0. 1
</event>
<event>
 4 80 1 -1 -1 -1
 11 -1 0 0 0 0 0 0 5 5 0 0. 9.
 -11 -1 0 0 0 0 0 0 -4.99997 4.99997 0 0. 9.
 15 1 1 2 0 0 -1.10923 4.33308 -1.35503 4.99998 1.7768 0. 1
 -15 1 1 2 0 0 1.10923 -4.33308 1.35506 4.99999 1.7768 0. -1
</event>
<event>
 4 80 1 -1 -1 -1
 11 -1 0 0 0 0 0 0 4.99999 4.99999 0 0. 9.
 -11 -1 0 0 0 0 0 0 -4.99982 4.99982 0 0. 9.
 15 1 1 2 0 0 0.781404 0.682463 -4.55678 4.99983 1.7768 0. 1
 -15 1 1 2 0 0 -0.781404 -0.682463 4.55695 4.99999 1.7768 0. -1
</event>
<event>
 4 80 1 -1 -1 -1
 11 -1 0 0 0 0 0 0 5 5 0 0. 9.
 -11 -1 0 0 0 0 0 0 -4.98774 4.98774 0 0. 9.
 15 1 1 2 0 0 -0.319932 -4.08812 -2.22229 4.99114 1.7768 0. 1
 -15 1 1 2 0 0 0.319932 4.08812 2.23455 4.99661 1.7768 0. -1
</event>
<event>
 4 80 1 -1 -1 -1
 11 -1 0 0 0 0 0 0 4.98289 4.98289 0 0. 9.
 -11 -1 0 0 0 0 0 0 -5 5 0 0. 9.
 15 1 1 2 0 0 4.42659 1.25487 -0.774968 4.99276 1.7768 0. 1
 -15 1 1 2 0 0 -4.42659 -1.25487 0.757862 4.99013 1.7768 0. -1
</event>
<event>
 4 80 1 -1 -1 -1
 11 -1 0 0 0 0 0 0 4.99989 4.99989 0 0. 9.
 -11 -1 0 0 0 0 0 0 -5 5 0 0. 9.
 15 1 1 2 0 0 3.97553 0.423589 -2.42027 4.99997 1.7768 0. 1
 -15 1 1 2 0 0 -3.97553 -0.423589 2.42016 4.99992 1.7768 0. -1
</event>
<event>
 4 80 1 -1 -1 -1
 11 -1 0 0 0 0 0 0 5 5 0 0. 9.
 -11 -1 0 0 0 0 0 0 -5 5 0 0. 9.
 15 1 1 2 0 0 0.292036 1.78713 -4.3085 5 1.7768 0. -1
 -15 1 1 2 0 0 -0.292036 -1.78713 4.3085 5 1.7768 0. 1
</event>
<event>
 4 80 1 -1 -1 -1
 11 -1 0 0 0 0 0 0 4.99389 4.99389 0 0. 9.
 -11 -1 0 0 0 0 0 0 -5 5 0 0. 9.
 15 1 1 2 0 0 -3.09604 0.881004 -3.38685 4.99901 1.7768 0. -1
 -15 1 1 2 0 0 3.09604 -0.881004 3.38074 4.99488 1.7768 0. 1
</event>
<event>
 4 80 1 -1 -1 -1
 11 -1 0 0 0 0 0 0 4.99999 4.99999 0 0. 9.
 -11 -1 0 0 0 0 0 0 -5 5 0 0. 9.
 15 1 1 2 0 0 1.9877 2.3305 -3.52988 5 1.7768 0. -1
 -15 1 1 2 0 0 -1.9877 -2.3305 3.52988 5 1.7768 0. 1
</event>
<event>
 4 80 1 -1 -1 -1
 11 -1 0 0 0 0 0 0 4.99948 4.99948 0 0. 9.
 -11 -1 0 0 0 0 0 0 -5 5 0 0. 9.
 15 1 1 2 0 0 -4.56896 -0.925394 0.328247 4.99972 1.7768 0. -1
 -15 1 1 2 0 0 4.56896 0.925394 -0.328766 4.99976 1.7768 0. 1
</event>
<event>
 4 80 1 -1 -1 -1
 11 -1 0 0 0 0 0 0 4.44676 4.44676 0 0. 9.
 -11 -1 0 0 0 0 0 0 -5 5 0 0. 9.
 15 1 1 2 0 0 0.122826 4.29277 -1.07368 4.77006 1.7768 0. 1
 -15 1 1 2 0 0 -0.122826 -4.29277 0.520439 4.6767 1.7768 0. -1
</event>
<event>
 4 80 1 -1 -1 -1
 11 -1 0 0 0 0 0 0 4.99842 4.99842 0 0. 9.
 -11 -1 0 0 0 0 0 0 -5 5 0 0. 9.
 15 1 1 2 0 0 -2.21907 -3.34725 -2.38951 4.99959 1.7768 0. 1
 -15 1 1 2 0 0 2.21907 3.34725 2.38793 4.99883 1.7768 0. -1
</event>
<event>
 4 80 1 -1 -1 -1
 11 -1 0 0 0 0 0 0 4.38354 4.38354 0 0. 9.
 -11 -1 0 0 0 0 0 0 -3.46029 3.46029 0 0. 9.
 15 1 1 2 0 0 -3.08882 0.018532 -1.12082 3.73566 1.7768 0. 1
 -15 1 1 2 0 0 3.08882 -0.018532 2.04407 4.10817 1.7768 0. -1
</event>
<event>
 4 80 1 -1 -1 -1
 11 -1 0 0 0 0 0 0 5 5 0 0. 9.
 -11 -1 0 0 0 0 0 0 -4.99993 4.99993 0 0. 9.
 15 1 1 2 0 0 -0.302926 -1.55765 -4.39586 4.99994 1.7768 0. 1
 -15 1 1 2 0 0 0.302926 1.55765 4.39593 5 1.7768 0. -1
</event>
<event>
 4 80 1 -1 -1 -1
 11 -1 0 0 0 0 0 0 4.99979 4.99979 0 0. 9.
 -11 -1 0 0 0 0 0 0 -4.95805 4.95805 0 0. 9.
 15 1 1 2 0 0 -1.83885 -4.25586 -0.350321 4.97736 1.7768 0. 1
 -15 1 1 2 0 0 1.83885 4.25586 0.392063 4.98048 1.7768 0. -1
</event>
<event>
 4 80 1 -1 -1 -1
 11 -1 0 0 0 0 0 0 4.65055 4.65055 0 0. 9.
 -11 -1 0 0 0 0 0 0 -4.97084 4.97084 0 0. 9.
 15 1 1 2 0 0 1.58878 2.20357 3.38858 4.69256 1.7768 0. 1
 -15 1 1 2 0 0 -1.58878 -2.20357 -3.70887 4.92883 1.7768 0. -1
</event>
<event>
 4 80 1 -1 -1 -1
 11 -1 0 0 0 0 0 0 5 5 0 0. 9.
 -11 -1 0 0 0 0 0 0 -4.99878 4.99878 0 0. 9.
 15 1 1 2 0 0 -1.56935 1.56423 4.11479 4.99989 1.7768 0. 1
 -15 1 1 2 0 0 1.56935 -1.56423 -4.11357 4.99888 1.7768 0. -1
</event>
<event>
 4 80 1 -1 -1 -1
 11 -1 0 0 0 0 0 0 0.935297 0.935297 0 0. 9.
 -11 -1 0 0 0 0 0 0 -4.54707 4.54707 0 0. 9.
 15 1 1 2 0 0 0.354136 -0.218485 -0.529567 1.90035 1.7768 0. -1
 -15 1 1 2 0 0 -0.354136 0.218485 -3.0822 3.58202 1.7768 0. 1
</event>
<event>
 4 80 1 -1 -1 -1
 11 -1 0 0 0 0 0 0 4.99983 4.99983 0 0. 9.
 -11 -1 0 0 0 0 0 0 -5 5 0 0. 9.
 15 1 1 2 0 0 -4.588 -0.483345 0.746992 4.9999 1.7768 0. 1
 -15 1 1 2 0 0 4.588 0.483345 -0.747158 4.99993 1.7768 0. -1
</event>
<event>
 4 80 1 -1 -1 -1
 11 -1 0 0 0 0 0 0 4.99999 4.99999 0 0. 9.
 -11 -1 0 0 0 0 0 0 -4.94287 4.94287 0 0. 9.
 15 1 1 2 0 0 2.75341 -3.03666 2.20897 4.98396 1.7768 0. -1
 -15 1 1 2 0 0 -2.75341 3.03666 -2.15184 4.9589 1.7768 0. 1
</event>
<event>
 4 80 1 -1 -1 -1
 11 -1 0 0 0 0 0 0 4.98861 4.98861 0 0. 9.
 -11 -1 0 0 0 0 0 0 -5 5 0 0. 9.
 15 1 1 2 0 0 0.34001 -4.38454 -1.56952 4.99609 1.7768 0. -1
 -15 1 1 2 0 0 -0.34001 4.38454 1.55812 4.99252 1.7768 0. 1
</event>
<event>
 4 80 1 -1 -1 -1
 11 -1 0 0 0 0 0 0 4.59902 4.59902 0 0. 9.
 -11 -1 0 0 0 0 0 0 -4.95325 4.95325 0 0. 9.
 15 1 1 2 0 0 1.84178 -1.60245 -3.87593 4.9133 1.7768 0. 1
 -15 1 1 2 0 0 -1.84178 1.60245 3.5217 4.63897 1.7768 0. -1
</event>
<event>
 4 80 1 -1 -1 -1
 11 -1 0 0 0 0 0 0 4.99985 4.99985 0 0. 9.
 -11 -1 0 0 0 0 0 0 -5 5 0 0. 9.
 15 1 1 2 0 0 -0.700717 3.17438 -3.35773 4.99998 1.7768 0. -1
 -15 1 1 2 0 0 0.700717 -3.17438 3.35758 4.99988 1.7768 0. 1
</event>
<event>
 4 80 1 -1 -1 -1
 11 -1 0 0 0 0 0 0 5 5 0 0. 9.
 -11 -1 0 0 0 0 0 0 -4.84977 4.84977 0 0. 9.
 15 1 1 2 0 0 -1.89345 1.72588 3.88703 4.98302 1.7768 0. -1
 -15 1 1 2 0 0 1.89345 -1.72588 -3.73679 4.86674 1.7768 0. 1
</event>
<event>
 4 80 1 -1 -1 -1
 11 -1 0 0 0 0 0 0 5 5 0 0. 9.
 -11 -1 0 0 0 0 0 0 -4.99917 4.99917 0 0. 9.
 15 1 1 2 0 0 -3.86445 1.90486 1.81029 4.99974 1.7768 0. -1
 -15 1 1 2 0 0 3.86445 -1.90486 -1.80946 4.99944 1.7768 0. 1
</event>
<event>
 4 80 1 -1 -1 -1
 11 -1 0 0 0 0 0 0 5 5 0 0. 9.
 -11 -1 0 0 0 0 0 0 -5 5 0 0. 9.
 15 1 1 2 0 0 0.96801 -4.18289 -1.84626 5 1.7768 0. -1
 -15 1 1 2 0 0 -0.96801 4.18289 1.84626 5 1.7768 0. 1
</event>
<event>
 4 80 1 -1 -1 -1
 11 -1 0 0 0 0 0 0 4.9997 4.9997 0 0. 9.
 -11 -1 0 0 0 0 0 0 -5 5 0 0. 9.
 15 1 1 2 0 0 2.94141 2.1037 2.96014 4.99976 1.7768 0. -1
 -15 1 1 2 0 0 -2.94141 -2.1037 -2.96045 4.99994 1.7768 0. 1
</event>
<event>
 4 80 1 -1 -1 -1
 11 -1 0 0 0 0 0 0 5 5 0 0. 9.
 -11 -1 0 0 0 0 0 0 -5 5 0 0. 9.
 15 1 1 2 0 0 -1.50048 -1.65564 -4.10484 5 1.7768 0. 1
 -15 1 1 2 0 0 1.50048 1.65564 4.10484 5 1.7768 0. -1
</event>
<event>
 4 80 1 -1 -1 -1
 11 -1 0 0 0 0 0 0 4.99999 4.99999 0 0. 9.
 -11 -1 0 0 0 0 0 0 -5 5 0 0. 9.
 15 1 1 2 0 0 2.56098 -2.43001 3.06245 4.99999 1.7768 0. -1
 -15 1 1 2 0 0 -2.56098 2.43001 -3.06246 5 1.7768 0. 1
</event>
<event>
 4 80 1 -1 -1 -1
 11 -1 0 0 0 0 0 0 3.33178 3.33178 0 0. 9.
 -11 -1 0 0 0 0 0 0 -2.98181 2.98181 0 0. 9.
 15 1 1 2 0 0 1.7252 -1.53017 1.38485 3.22386 1.7768 0. 1
 -15 1 1 2 0 0 -1.7252 1.53017 -1.03489 3.08973 1.7768 0. -1
</event>
<event>
 4 80 1 -1 -1 -1
 11 -1 0 0 0 0 0 0 5 5 0 0. 9.
 -11 -1 0 0 0 0 0 0 -4.87232 4.87232 0 0. 9.
 15 1 1 2 0 0 2.68543 -0.92057 3.68973 4.98305 1.7768 0. -1
 -15 1 1 2 0 0 -2.68543 0.92057 -3.56205 4.88927 1.7768 0. 1
</event>
<event>
 4 80 1 -1 -1 -1
 11 -1 0 0 0 0 0 0 5 5 0 0. 9.
 -11 -1 0 0 0 0 0 0 -5 5 0 0. 9.
 15 1 1 2 0 0 1.18685 -3.21004 3.18266 5 1.7768 0. -1
 -15 1 1 2 0 0 -1.18685 3.21004 -3.18266 5 1.7768 0. 1
</event>
<event>
 4 80 1 -1 -1 -1
 11 -1 0 0 0 0 0 0 4.94585 4.94585 0 0. 9.
 -11 -1 0 0 0 0 0 0 -5 5 0 0. 9.
 15 1 1 2 0 0 0.0952077 4.15332 -2.10373 4.98423 1.7768 0. 1
 -15 1 1 2 0 0 -0.0952077 -4.15332 2.04958 4.96162 1.7768 0. -1
</event>
<event>
 4 80 1 -1 -1 -1
 11 -1 0 0 0 0 0 0 4.9985 4.9985 0 0. 9.
 -11 -1 0 0 0 0 0 0 -5 5 0 0. 9.
 15 1 1 2 0 0 4.17055 -0.165162 2.10019 4.99893 1.7768 0. 1
 -15 1 1 2 0 0 -4.17055 0.165162 -2.10169 4.99956 1.7768 0. -1
</event>
<event>
 4 80 1 -1 -1 -1
 11 -1 0 0 0 0 0 0 4.88586 4.88586 0 0. 9.
 -11 -1 0 0 0 0 0 0 -5 5 0 0. 9.
 15 1 1 2 0 0 1.18144 0.523241 -4.48478 4.99405 1.7768 0. -1
 -15 1 1 2 0 0 -1.18144 -0.523241 4.37064 4.89181 1.7768 0. 1
</event>
<event>
 4 80 1 -1 -1 -1
 11 -1 0 0 0 0 0 0 1.65621 1.65621 0 0. 9.
 -11 -1 0 0 0 0 0 0 -3.96398 3.96398 0 0. 9.
 15 1 1 2 0 0 1.45665 -0.961726 -0.495192 2.53963 1.7768 0. 1
 -15 1 1 2 0 0 -1.45665 0.961726 -1.81258 3.08057 1.7768 0. -1
</event>
<event>
 4 80 1 -1 -1 -1
 11 -1 0 0 0 0 0 0 5 5 0 0. 9.
 -11 -1 0 0 0 0 0 0 -4.9917 4.9917 0 0. 9.
 15 1 1 2 0 0 -1.56679 -3.44888 2.73383 4.99812 1.7768 0. -1
 -15 1 1 2 0 0 1.56679 3.44888 -2.72553 4.99358 1.7768 0. 1
</event>
<event>
 4 80 1 -1 -1 -1
 11 -1 0 0 0 0 0 0 4.99965 4.99965 0 0. 9.
 -11 -1 0 0 0 0 0 0 -4.90706 4.90706 0 0. 9.
 15 1 1 2 0 0 -1.72777 -3.58118 2.40559 4.97541 1.7768 0. 1
 -15 1 1 2 0 0 1.72777 3.58118 -2.313 4.9313 1.7768 0. -1
</event>
<event>
 4 80 1 -1 -1 -1
 11 -1 0 0 0 0 0 0 5 5 0 0. 9.
 -11 -1 0 0 0 0 0 0 -4.99997 4.99997 0 0. 9.
 15 1 1 2 0 0 3.98332 0.304174 2.42546 4.99999 1.7768 0. 1
 -15 1 1 2 0 0 -3.98332 -0.304174 -2.42543 4.99998 1.7768 0. -1
</event>
<event>
 4 80 1 -1 -1 -1
 11 -1 0 0 0 0 0 0 5 5 0 0. 9.
 -11 -1 0 0 0 0 0 0 -5 5 0 0. 9.
 15 1 1 2 0 0 -3.92093 -2.51572 -0.373747 5 1.7768 0. 1
 -15 1 1 2 0 0 3.92093 2.51572 0.373747 5 1.7768 0. -1
</event>
<event>
 4 80 1 -1 -1 -1
 11 -1 0 0 0 0 0 0 4.99954 4.99954 0 0. 9.
 -11 -1 0 0 0 0 0 0 -5 5 0 0. 9.
 15 1 1 2 0 0 -0.0840217 4.16221 2.12319 4.99967 1.7768 0. 1
 -15 1 1 2 0 0 0.0840217 -4.16221 -2.12365 4.99987 1.7768 0. -1
</event>
<event>
 4 80 1 -1 -1 -1
 11 -1 0 0 0 0 0 0 5 5 0 0. 9.
 -11 -1 0 0 0 0 0 0 -4.98915 4.98915 0 0. 9.
 15 1 1 2 0 0 1.0685 -3.16702 3.26369 4.99811 1.7768 0. -1
 -15 1 1 2 0 0 -1.0685 3.16702 -3.25284 4.99104 1.7768 0. 1
</event>
<event>
 4 80 1 -1 -1 -1
 11 -1 0 0 0 0 0 0 4.58464 4.58464 0 0. 9.
 -11 -1 0 0 0 0 0 0 -5 5 0 0. 9.
 15 1 1 2 0 0 -2.87312 3.20085 -1.33355 4.84111 1.7768 0. 1
 -15 1 1 2 0 0 2.87312 -3.20085 0.918192 4.74353 1.7768 0. -1
</event>
<event>
 4 80 1 -1 -1 -1
 11 -1 0 0 0 0 0 0 5 5 0 0. 9.
 -11 -1 0 0 0 0 0 0 -5 5 0 0. 9.
 15 1 1 2 0 0 0.30578 -4.64374 -0.429497 5 1.7768 0. 1
 -15 1 1 2 0 0 -0.30578 4.64374 0.429497 5 1.7768 0. -1
</event>
<event>
 4 80 1 -1 -1 -1
 11 -1 0 0 0 0 0 0 5 5 0 0. 9.
 -11 -1 0 0 0 0 0 0 -5 5 0 0. 9.
 15 1 1 2 0 0 -2.16144 3.294 -2.51396 5 1.7768 0. 1
 -15 1 1 2 0 0 2.16144 -3.294 2.51396 5 1.7768 0. -1
</event>
<event>
 4 80 1 -1 -1 -1
 11 -1 0 0 0 0 0 0 5 5 0 0. 9.
 -11 -1 0 0 0 0 0 0 -5 5 0 0. 9.
 15 1 1 2 0 0 3.76545 -2.11172 -1.79007 5 1.7768 0. -1
 -15 1 1 2 0 0 -3.76545 2.11172 1.79007 5 1.7768 0. 1
</event>
<event>
 4 80 1 -1 -1 -1
 11 -1 0 0 0 0 0 0 4.29988 4.29988 0 0. 9.
 -11 -1 0 0 0 0 0 0 -4.99941 4.99941 0 0. 9.
 15 1 1 2 0 0 -3.32633 -1.89236 1.57757 4.50466 1.7768 0. -1
 -15 1 1 2 0 0 3.32633 1.89236 -2.2771 4.79462 1.7768 0. 1
</event>
<event>
 4 80 1 -1 -1 -1
 11 -1 0 0 0 0 0 0 3.17984 3.17984 0 0. 9.
 -11 -1 0 0 0 0 0 0 -4.68042 4.68042 0 0. 9.
 15 1 1 2 0 0 3.14054 0.113558 -2.13568 4.19461 1.7768 0. -1
 -15 1 1 2 0 0 -3.14054 -0.113558 0.635088 3.66565 1.7768 0. 1
</event>
<event>
 4 80 1 -1 -1 -1
 11 -1 0 0 0 0 0 0 5 5 0 0. 9.
 -11 -1 0 0 0 0 0 0 -5 5 0 0. 9.
 15 1 1 2 0 0 0.692777 -1.86852 4.2274 5 1.7768 0. 1
 -15 1 1 2 0 0 -0.692777 1.86852 -4.2274 5 1.7768 0. -1
</event>
<event>
 4 80 1 -1 -1 -1
 11 -1 0 0 0 0 0 0 4.9999 4.9999 0 0. 9.
 -11 -1 0 0 0 0 0 0 -5 5 0 0. 9.
 15 1 1 2 0 0 0.818615 -1.85792 4.20944 4.99991 1.7768 0. 1
 -15 1 1 2 0 0 -0.818615 1.85792 -4.20954 4.99999 1.7768 0. -1
</event>
<event>
 4 80 1 -1 -1 -1
 11 -1 0 0 0 0 0 0 4.0291 4.0291 0 0. 9.
 -11 -1 0 0 0 0 0 0 -5 5 0 0. 9.
 15 1 1 2 0 0 0.374828 -2.05742 3.08693 4.13042 1.7768 0. -1
 -15 1 1 2 0 0 -0.374828 2.05742 -4.05783 4.89869 1.7768 0. 1
</event>
<event>
 4 80 1 -1 -1 -1
 11 -1 0 0 0 0 0 0 5 5 0 0. 9.
 -11 -1 0 0 0 0 0 0 -5 5 0 0. 9.
 15 1 1 2 0 0 1.90668 -1.22983 4.08587 5 1.7768 0. 1
 -15 1 1 2 0 0 -1.90668 1.22983 -4.08587 5 1.7768 0. -1
</event>
<event>
 4 80 1 -1 -1 -1
 11 -1 0 0 0 0 0 0 5 5 0 0. 9.
 -11 -1 0 0 0 0 0 0 -2.88713 2.88713 0 0. 9.
 15 1 1 2 0 0 -1.78593 -1.97222 -1.07038 3.37382 1.7768 0. -1
 -15 1 1 2 0 0 1.78593 1.97222 3.18325 4.51331 1.7768 0. 1
</event>
<event>
 4 80 1 -1 -1 -1
 11 -1 0 0 0 0 0 0 5 5 0 0. 9.
 -11 -1 0 0 0 0 0 0 -4.48765 4.48765 0 0. 9.
 15 1 1 2 0 0 1.11242 -1.14037 4.35393 4.96511 1.7768 0. 1
 -15 1 1 2 0 0 -1.11242 1.14037 -3.84158 4.52254 1.7768 0. -1
</event>
<event>
 4 80 1 -1 -1 -1
 11 -1 0 0 0 0 0 0 5 5 0 0. 9.
 -11 -1 0 0 0 0 0 0 -4.99993 4.99993 0 0. 9.
 15 1 1 2 0 0 0.204231 -0.709598 4.61487 5 1.7768 0. 1
 -15 1 1 2 0 0 -0.204231 0.709598 -4.6148 4.99994 1.7768 0. -1
</event>
<event>
 4 80 1 -1 -1 -1
 11 -1 0 0 0 0 0 0 5 5 0 0. 9.
 -11 -1 0 0 0 0 0 0 -5 5 0 0. 9.
 15 1 1 2 0 0 -1.88318 2.69572 3.32099 5 1.7768 0. 1
 -15 1 1 2 0 0 1.88318 -2.69572 -3.32099 5 1.7768 0. -1
</event>
<event>
 4 80 1 -1 -1 -1
 11 -1 0 0 0 0 0 0 5 5 0 0. 9.
 -11 -1 0 0 0 0 0 0 -5 5 0 0. 9.
 15 1 1 2 0 0 -1.98517 3.13642 2.83976 5 1.7768 0. -1
 -15 1 1 2 0 0 1.98517 -3.13642 -2.83976 5 1.7768 0. 1
</event>
<event>
 4 80 1 -1 -1 -1
 11 -1 0 0 0 0 0 0 4.95329 4.95329 0 0. 9.
 -11 -1 0 0 0 0 0 0 -4.4203 4.4203 0 0. 9.
 15 1 1 2 0 0 3.26835 -1.20334 -2.3081 4.5404 1.7768 0. 1
 -15 1 1 2 0 0 -3.26835 1.20334 2.84109 4.83319 1.7768 0. -1
</event>
<event>
 4 80 1 -1 -1 -1
 11 -1 0 0 0 0 0 0 5 5 0 0. 9.
 -11 -1 0 0 0 0 0 0 -5 5 0 0. 9.
 15 1 1 2 0 0 -1.24402 0.019869 4.50492 5 1.7768 0. 1
 -15 1 1 2 0 0 1.24402 -0.019869 -4.50492 5 1.7768 0. -1
</event>
<event>
 4 80 1 -1 -1 -1
 11 -1 0 0 0 0 0 0 5 5 0 0. 9.
 -11 -1 0 0 0 0 0 0 -5 5 0 0. 9.
 15 1 1 2 0 0 1.50218 -0.695818 -4.37053 5 1.7768 0. 1
 -15 1 1 2 0 0 -1.50218 0.695818 4.37053 5 1.7768 0. -1
</event>
<event>
 4 80 1 -1 -1 -1
 11 -1 0 0 0 0 0 0 4.52058 4.52058 0 0. 9.
 -11 -1 0 0 0 0 0 0 -4.99993 4.99993 0 0. 9.
 15 1 1 2 0 0 1.39352 3.48152 -2.56254 4.87721 1.7768 0. 1
 -15 1 1 2 0 0 -1.39352 -3.48152 2.08318 4.6433 1.7768 0. -1
</event>
<event>
 4 80 1 -1 -1 -1
 11 -1 0 0 0 0 0 0 4.9681 4.9681 0 0. 9.
 -11 -1 0 0 0 0 0 0 -5 5 0 0. 9.
 15 1 1 2 0 0 3.80472 2.66016 -0.377098 4.98521 1.7768 0. 1
 -15 1 1 2 0 0 -3.80472 -2.66016 0.345197 4.98289 1.7768 0. -1
</event>
<event>
 4 80 1 -1 -1 -1
 11 -1 0 0 0 0 0 0 5 5 0 0. 9.
 -11 -1 0 0 0 0 0 0 -5 5 0 0. 9.
 15 1 1 2 0 0 1.99301 2.25564 3.57523 5 1.7768 0. 1
 -15 1 1 2 0 0 -1.99301 -2.25564 -3.57523 5 1.7768 0. -1
</event>
<event>
 4 80 1 -1 -1 -1
 11 -1 0 0 0 0 0 0 5 5 0 0. 9.
 -11 -1 0 0 0 0 0 0 -5 5 0 0. 9.
 15 1 1 2 0 0 1.83672 -3.948 -1.69766 5 1.7768 0. -1
 -15 1 1 2 0 0 -1.83672 3.948 1.69766 5 1.7768 0. 1
</event>
<event>
 4 80 1 -1 -1 -1
 11 -1 0 0 0 0 0 0 5 5 0 0. 9.
 -11 -1 0 0 0 0 0 0 -4.99999 4.99999 0 0. 9.
 15 1 1 2 0 0 0.204993 2.02692 4.20616 5 1.7768 0. 1
 -15 1 1 2 0 0 -0.204993 -2.02692 -4.20615 4.99999 1.7768 0. -1
</event>
<event>
 4 80 1 -1 -1 -1
 11 -1 0 0 0 0 0 0 5 5 0 0. 9.
 -11 -1 0 0 0 0 0 0 -4.99931 4.99931 0 0. 9.
 15 1 1 2 0 0 -3.48072 1.33062 -2.81973 4.99946 1.7768 0. -1
 -15 1 1 2 0 0 3.48072 -1.33062 2.82042 4.99985 1.7768 0. 1
</event>
<event>
 4 80 1 -1 -1 -1
 11 -1 0 0 0 0 0 0 4.99785 4.99785 0 0. 9.
 -11 -1 0 0 0 0 0 0 -5 5 0 0. 9.
 15 1 1 2 0 0 1.89119 -0.288851 -4.26388 4.99984 1.7768 0. 1
 -15 1 1 2 0 0 -1.89119 0.288851 4.26173 4.99801 1.7768 0. -1
</event>
<event>
 4 80 1 -1 -1 -1
 11 -1 0 0 0 0 0 0 5 5 0 0. 9.
 -11 -1 0 0 0 0 0 0 -4.99984 4.99984 0 0. 9.
 15 1 1 2 0 0 -0.992001 3.82322 2.49816 4.99996 1.7768 0. -1
 -15 1 1 2 0 0 0.992001 -3.82322 -2.49801 4.99988 1.7768 0. 1
</event>
<event>
 4 80 1 -1 -1 -1
 11 -1 0 0 0 0 0 0 5 5 0 0. 9.
 -11 -1 0 0 0 0 0 0 -4.75072 4.75072 0 0. 9.
 15 1 1 2 0 0 -0.56585 4.36238 -0.991672 4.84682 1.7768 0. 1
 -15 1 1 2 0 0 0.56585 -4.36238 1.24095 4.9039 1.7768 0. -1
</event>
<event>
 4 80 1 -1 -1 -1
 11 -1 0 0 0 0 0 0 5 5 0 0. 9.
 -11 -1 0 0 0 0 0 0 -5 5 0 0. 9.
 15 1 1 2 0 0 -1.23691 -3.4066 -2.95083 5 1.7768 0. -1
 -15 1 1 2 0 0 1.23691 3.4066 2.95083 5 1.7768 0. 1
</event>
<event>
 4 80 1 -1 -1 -1
 11 -1 0 0 0 0 0 0 5 5 0 0. 9.
 -11 -1 0 0 0 0 0 0 -4.99442 4.99442 0 0. 9.
 15 1 1 2 0 0 1.46478 0.219203 4.43232 4.99968 1.7768 0. -1
 -15 1 1 2 0 0 -1.46478 -0.219203 -4.42674 4.99474 1.7768 0. 1
</event>
<event>
 4 80 1 -1 -1 -1
 11 -1 0 0 0 0 0 0 5 5 0 0. 9.
 -11 -1 0 0 0 0 0 0 -1.72866 1.72866 0 0. 9.
 15 1 1 2 0 0 -1.89671 0.57815 3.06211 4.05783 1.7768 0. 1
 -15 1 1 2 0 0 1.89671 -0.57815 0.209236 2.67082 1.7768 0. -1
</event>
<event>
 4 80 1 -1 -1 -1
 11 -1 0 0 0 0 0 0 4.99506 4.99506 0 0. 9.
 -11 -1 0 0 0 0 0 0 -5 5 0 0. 9.
 15 1 1 2 0 0 3.19468 2.74771 -2.01784 4.99853 1.7768 0. 1
 -15 1 1 2 0 0 -3.19468 -2.74771 2.0129 4.99654 1.7768 0. -1
</event>
<event>
 4 80 1 -1 -1 -1
 11 -1 0 0 0 0 0 0 3.84409 3.84409 0 0. 9.
 -11 -1 0 0 0 0 0 0 -5 5 0 0. 9.
 15 1 1 2 0 0 0.846357 3.90725 -0.29298 4.3848 1.7768 0. 1
 -15 1 1 2 0 0 -0.846357 -3.90725 -0.862928 4.45929 1.7768 0. -1
</event>
<event>
 4 80 1 -1 -1 -1
 11 -1 0 0 0 0 0 0 5 5 0 0. 9.
 -11 -1 0 0 0 0 0 0 -5 5 0 0. 9.
 15 1 1 2 0 0 0.951615 0.729121 -4.5172 5 1.7768 0. -1
 -15 1 1 2 0 0 -0.951615 -0.729121 4.5172 5 1.7768 0. 1
</event>
<event>
 4 80 1 -1 -1 -1
 11 -1 0 0 0 0 0 0 5 5 0 0. 9.
 -11 -1 0 0 0 0 0 0 -4.99983 4.99983 0 0. 9.
 15 1 1 2 0 0 -3.34002 1.59021 2.85612 4.99996 1.7768 0. -1
 -15 1 1 2 0 0 3.34002 -1.59021 -2.85595 4.99987 1.7768 0. 1
</event>
<event>
 4 80 1 -1 -1 -1
 11 -1 0 0 0 0 0 0 5 5 0 0. 9.
 -11 -1 0 0 0 0 0 0 -5 5 0 0. 9.
 15 1 1 2 0 0 0.416058 -1.58875 -4.3755 5 1.7768 0. 1
 -15 1 1 2 0 0 -0.416058 1.58875 4.3755 5 1.7768 0. -1
</event>
<event>
 4 80 1 -1 -1 -1
 11 -1 0 0 0 0 0 0 4.99697 4.99697 0 0. 9.
 -11 -1 0 0 0 0 0 0 -5 5 0 0. 9.
 15 1 1 2 0 0 1.90344 -2.20073 3.65373 4.99738 1.7768 0. 1
 -15 1 1 2 0 0 -1.90344 2.20073 -3.65676 4.99959 1.7768 0. -1
</event>
<event>
 4 80 1 -1 -1 -1
 11 -1 0 0 0 0 0 0 4.73909 4.73909 0 0. 9.
 -11 -1 0 0 0 0 0 0 -4.99998 4.99998 0 0. 9.
 15 1 1 2 0 0 -1.25609 1.55507 -4.19904 4.97852 1.7768 0. 1
 -15 1 1 2 0 0 1.25609 -1.55507 3.93815 4.76055 1.7768 0. -1
</event>
<event>
 4 80 1 -1 -1 -1
 11 -1 0 0 0 0 0 0 5 5 0 0. 9.
 -11 -1 0 0 0 0 0 0 -4.99991 4.99991 0 0. 9.
 15 1 1 2 0 0 -4.22197 -1.00489 -1.73402 4.99994 1.7768 0. -1
 -15 1 1 2 0 0 4.22197 1.00489 1.73411 4.99997 1.7768 0. 1
</event>
<event>
 4 80 1 -1 -1 -1
 11 -1 0 0 0 0 0 0 4.99993 4.99993 0 0. 9.
 -11 -1 0 0 0 0 0 0 -4.99979 4.99979 0 0. 9.
 15 1 1 2 0 0 3.22651 -0.942518 3.24694 4.99991 1.7768 0. -1
 -15 1 1 2 0 0 -3.22651 0.942518 -3.2468 4.99981 1.7768 0. 1
</event>
<event>
 4 80 1 -1 -1 -1
 11 -1 0 0 0 0 0 0 4.99551 4.99551 0 0. 9.
 -11 -1 0 0 0 0 0 0 -5 5 0 0. 9.
 15 1 1 2 0 0 3.00816 -0.366823 -3.55699 4.99935 1.7768 0. -1
 -15 1 1 2 0 0 -3.00816 0.366823 3.5525 4.99616 1.7768 0. 1
</event>
<event>
 4 80 1 -1 -1 -1
 11 -1 0 0 0 0 0 0 5 5 0 0. 9.
 -11 -1 0 0 0 0 0 0 -5 5 0 0. 9.
 15 1 1 2 0 0 -4.31641 1.15772 -1.36769 5 1.7768 0. -1
 -15 1 1 2 0 0 4.31641 -1.15772 1.36768 5 1.7768 0. 1
</event>
<event>
 4 80 1 -1 -1 -1
 11 -1 0 0 0 0 0 0 5 5 0 0. 9.
 -11 -1 0 0 0 0 0 0 -4.99996 4.99996 0 0. 9.
 15 1 1 2 0 0 -2.15996 0.0930947 4.14345 5 1.7768 0. 1
 -15 1 1 2 0 0 2.15996 -0.0930947 -4.14341 4.99996 1.7768 0. -1
</event>
<event>
 4 80 1 -1 -1 -1
 11 -1 0 0 0 0 0 0 4.06639 4.06639 0 0. 9.
 -11 -1 0 0 0 0 0 0 -5 5 0 0. 9.
 15 1 1 2 0 0 1.89009 -3.57115 0.45933 4.43783 1.7768 0. -1
 -15 1 1 2 0 0 -1.89009 3.57115 -1.39294 4.62856 1.7768 0. 1
</event>
<event>
 4 80 1 -1 -1 -1
 11 -1 0 0 0 0 0 0 4.98978 4.98978 0 0. 9.
 -11 -1 0 0 0 0 0 0 -4.99998 4.99998 0 0. 9.
 15 1 1 2 0 0 4.0466 2.32709 0.0226521 4.99485 1.7768 0. 1
 -15 1 1 2 0 0 -4.0466 -2.32709 -0.0328517 4.99491 1.7768 0. -1
</event>
<event>
 4 80 1 -1 -1 -1
 11 -1 0 0 0 0 0 0 5 5 0 0. 9.
 -11 -1 0 0 0 0 0 0 -5 5 0 0. 9.
 15 1 1 2 0 0 -1.45743 -0.771616 -4.37296 5 1.7768 0. 1
 -15 1 1 2 0 0 1.45743 0.771616 4.37296 5 1.7768 0. -1
</event>
<event>
 4 80 1 -1 -1 -1
 11 -1 0 0 0 0 0 0 5 5 0 0. 9.
 -11 -1 0 0 0 0 0 0 -4.99205 4.99205 0 0. 9.
 15 1 1 2 0 0 -0.85942 4.52232 -0.778656 4.9954 1.7768 0. -1
 -15 1 1 2 0 0 0.85942 -4.52232 0.786607 4.99665 1.7768 0. 1
</event>
<event>
 4 80 1 -1 -1 -1
 11 -1 0 0 0 0 0 0 5 5 0 0. 9.
 -11 -1 0 0 0 0 0 0 -5 5 0 0. 9.
 15 1 1 2 0 0 3.05858 0.904559 -3.41602 5 1.7768 0. -1
 -15 1 1 2 0 0 -3.05858 -0.904559 3.41601 5 1.7768 0. 1
</event>
<event>
 4 80 1 -1 -1 -1
 11 -1 0 0 0 0 0 0 5 5 0 0. 9.
 -11 -1 0 0 0 0 0 0 -5 5 0 0. 9.
 15 1 1 2 0 0 -4.03279 1.94844 -1.33509 5 1.7768 0. 1
 -15 1 1 2 0 0 4.03279 -1.94844 1.33509 5 1.7768 0. -1
</event>
<event>
 4 80 1 -1 -1 -1
 11 -1 0 0 0 0 0 0 5 5 0 0. 9.
 -11 -1 0 0 0 0 0 0 -4.99994 4.99994 0 0. 9.
 15 1 1 2 0 0 0.376995 -2.88034 -3.66105 4.99995 1.7768 0. -1
 -15 1 1 2 0 0 -0.376995 2.88034 3.66111 4.99999 1.7768 0. 1
</event>
<event>
 4 80 1 -1 -1 -1
 11 -1 0 0 0 0 0 0 5 5 0 0. 9.
 -11 -1 0 0 0 0 0 0 -0.770299 0.770299 0 0. 9.
 15 1 1 2 0 0 0.360742 -0.181724 3.18573 3.67012 1.7768 0. 1
 -15 1 1 2 0 0 -0.360742 0.181724 1.04397 2.10018 1.7768 0. -1
</event>
<event>
 4 80 1 -1 -1 -1
 11 -1 0 0 0 0 0 0 5 5 0 0. 9.
 -11 -1 0 0 0 0 0 0 -5 5 0 0. 9.
 15 1 1 2 0 0 0.579778 -0.16303 -4.6346 5 1.7768 0. -1
 -15 1 1 2 0 0 -0.579778 0.16303 4.6346 5 1.7768 0. 1
</event>
<event>
 4 80 1 -1 -1 -1
 11 -1 0 0 0 0 0 0 5 5 0 0. 9.
 -11 -1 0 0 0 0 0 0 -5 5 0 0. 9.
 15 1 1 2 0 0 2.63951 -3.09992 2.29473 5 1.7768 0. -1
 -15 1 1 2 0 0 -2.63951 3.09992 -2.29473 5 1.7768 0. 1
</event>
<event>
 4 80 1 -1 -1 -1
 11 -1 0 0 0 0 0 0 5 5 0 0. 9.
 -11 -1 0 0 0 0 0 0 -4.99811 4.99811 0 0. 9.
 15 1 1 2 0 0 -0.347176 -2.42677 3.97877 4.99981 1.7768 0. -1
 -15 1 1 2 0 0 0.347176 2.42677 -3.97688 4.99831 1.7768 0. 1
</event>
<event>
 4 80 1 -1 -1 -1
 11 -1 0 0 0 0 0 0 4.97111 4.97111 0 0. 9.
 -11 -1 0 0 0 0 0 0 -2.58828 2.58828 0 0. 9.
 15 1 1 2 0 0 1.06356 -2.82986 0.396153 3.52901 1.7768 0. -1
 -15 1 1 2 0 0 -1.06356 2.82986 1.98667 4.03037 1.7768 0. 1
</event>
<event>
 4 80 1 -1 -1 -1
 11 -1 0 0 0 0 0 0 5 5 0 0. 9.
 -11 -1 0 0 0 0 0 0 -5 5 0 0. 9.
 15 1 1 2 0 0 -1.29198 1.68431 4.16367 5 1.7768 0. 1
 -15 1 1 2 0 0 1.29198 -1.68431 -4.16367 5 1.7768 0. -1
</event>
<event>
 4 80 1 -1 -1 -1
 11 -1 0 0 0 0 0 0 5 5 0 0. 9.
 -11 -1 0 0 0 0 0 0 -4.99792 4.99792 0 0. 9.
 15 1 1 2 0 0 -2.2616 3.12567 2.6368 4.99951 1.7768 0. -1
 -15 1 1 2 0 0 2.2616 -3.12567 -2.63472 4.99841 1.7768 0. 1
</event>
<event>
 4 80 1 -1 -1 -1
 11 -1 0 0 0 0 0 0 4.99816 4.99816 0 0. 9.
 -11 -1 0 0 0 0 0 0 -5 5 0 0. 9.
 15 1 1 2 0 0 -1.81523 4.30038 -0.212362 4.99912 1.7768 0. 1
 -15 1 1 2 0 0 1.81523 -4.30038 0.210518 4.99904 1.7768 0. -1
</event>
<event>
 4 80 1 -1 -1 -1
 11 -1 0 0 0 0 0 0 4.9934 4.9934 0 0. 9.
 -11 -1 0 0 0 0 0 0 -3.94986 3.94986 0 0. 9.
 15 1 1 2 0 0 0.139167 -2.14175 4.00374 4.87792 1.7768 0. -1
 -15 1 1 2 0 0 -0.139167 2.14175 -2.96019 4.06533 1.7768 0. 1
</event>
<event>
 4 80 1 -1 -1 -1
 11 -1 0 0 0 0 0 0 4.99868 4.99868 0 0. 9.
 -11 -1 0 0 0 0 0 0 -4.99346 4.99346 0 0. 9.
 15 1 1 2 0 0 1.26785 3.61426 -2.6681 4.99467 1.7768 0. -1
 -15 1 1 2 0 0 -1.26785 -3.61426 2.67333 4.99747 1.7768 0. 1
</event>
<event>
 4 80 1 -1 -1 -1
 11 -1 0 0 0 0 0 0 1.36008 1.36008 0 0. 9.
 -11 -1 0 0 0 0 0 0 -4.98966 4.98966 0 0. 9.
 15 1 1 2 0 0 -1.62538 0.00833716 -3.02538 3.86686 1.7768 0. -1
 -15 1 1 2 0 0 1.62538 -0.00833716 -0.604199 2.48289 1.7768 0. 1
</event>
<event>
 4 80 1 -1 -1 -1
 11 -1 0 0 0 0 0 0 4.95657 4.95657 0 0. 9.
 -11 -1 0 0 0 0 0 0 -4.97052 4.97052 0 0. 9.
 15 1 1 2 0 0 3.11702 2.66224 2.15536 4.96051 1.7768 0. -1
 -15 1 1 2 0 0 -3.11702 -2.66224 -2.16931 4.96659 1.7768 0. 1
</event>
<event>
 4 80 1 -1 -1 -1
 11 -1 0 0 0 0 0 0 4.28139 4.28139 0 0. 9.
 -11 -1 0 0 0 0 0 0 -4.96237 4.96237 0 0. 9.
 15 1 1 2 0 0 0.917231 -3.01107 2.52741 4.4106 1.7768 0. 1
 -15 1 1 2 0 0 -0.917231 3.01107 -3.20839 4.83316 1.7768 0. -1
</event>
<event>
 4 80 1 -1 -1 -1
 11 -1 0 0 0 0 0 0 5 5 0 0. 9.
 -11 -1 0 0 0 0 0 0 -5 5 0 0. 9.
 15 1 1 2 0 0 1.5787 3.07404 -3.14647 5 1.7768 0. -1
 -15 1 1 2 0 0 -1.5787 -3.07404 3.14647 5 1.7768 0. 1
</event>
<event>
 4 80 1 -1 -1 -1
 11 -1 0 0 0 0 0 0 2.27076 2.27076 0 0. 9.
 -11 -1 0 0 0 0 0 0 -5 5 0 0. 9.
 15 1 1 2 0 0 1.42327 -2.24749 -0.223245 3.20694 1.7768 0. -1
 -15 1 1 2 0 0 -1.42327 2.24749 -2.50599 4.06382 1.7768 0. 1
</event>
<event>
 4 80 1 -1 -1 -1
 11 -1 0 0 0 0 0 0 5 5 0 0. 9.
 -11 -1 0 0 0 0 0 0 -5 5 0 0. 9.
 15 1 1 2 0 0 -2.46216 0.765948 3.89786 5 1.7768 0. 1
 -15 1 1 2 0 0 2.46216 -0.765948 -3.89787 5 1.7768 0. -1
</event>
<event>
 4 80 1 -1 -1 -1
 11 -1 0 0 0 0 0 0 4.99999 4.99999 0 0. 9.
 -11 -1 0 0 0 0 0 0 -5 5 0 0. 9.
 15 1 1 2 0 0 -2.45712 -2.6928 2.92465 5 1.7768 0. -1
 -15 1 1 2 0 0 2.45712 2.6928 -2.92466 5 1.7768 0. 1
</event>
<event>
 4 80 1 -1 -1 -1
 11 -1 0 0 0 0 0 0 5 5 0 0. 9.
 -11 -1 0 0 0 0 0 0 -5 5 0 0. 9.
 15 1 1 2 0 0 2.87357 -2.4384 -2.76388 5 1.7768 0. 1
 -15 1 1 2 0 0 -2.87357 2.4384 2.76388 5 1.7768 0. -1
</event>
<event>
 4 80 1 -1 -1 -1
 11 -1 0 0 0 0 0 0 5 5 0 0. 9.
 -11 -1 0 0 0 0 0 0 -5 5 0 0. 9.
 15 1 1 2 0 0 -0.984458 0.095758 -4.56771 5 1.7768 0. -1
 -15 1 1 2 0 0 0.984458 -0.095758 4.56771 5 1.7768 0. 1
</event>
<event>
 4 80 1 -1 -1 -1
 11 -1 0 0 0 0 0 0 4.79586 4.79586 0 0. 9.
 -11 -1 0 0 0 0 0 0 -1.88398 1.88398 0 0. 9.
 15 1 1 2 0 0 -0.886571 1.96098 2.69629 3.88061 1.7768 0. -1
 -15 1 1 2 0 0 0.886571 -1.96098 0.215603 2.79923 1.7768 0. 1
</event>
<event>
 4 80 1 -1 -1 -1
 11 -1 0 0 0 0 0 0 4.94752 4.94752 0 0. 9.
 -11 -1 0 0 0 0 0 0 -4.99997 4.99997 0 0. 9.
 15 1 1 2 0 0 -3.56664 -2.00423 2.17423 4.96214 1.7768 0. -1
 -15 1 1 2 0 0 3.56664 2.00423 -2.22669 4.98535 1.7768 0. 1
</event>
<event>
 4 80 1 -1 -1 -1
 11 -1 0 0 0 0 0 0 3.23749 3.23749 0 0. 9.
 -11 -1 0 0 0 0 0 0 -5 5 0 0. 9.
 15 1 1 2 0 0 -3.32667 -0.0649976 -2.31399 4.4253 1.7768 0. -1
 -15 1 1 2 0 0 3.32667 0.0649976 0.551479 3.81219 1.7768 0. 1
</event>
<event>
 4 80 1 -1 -1 -1
 11 -1 0 0 0 0 0 0 4.8615 4.8615 0 0. 9.
 -11 -1 0 0 0 0 0 0 -4.99992 4.99992 0 0. 9.
 15 1 1 2 0 0 -1.14575 -3.66233 -2.60401 4.96629 1.7768 0. -1
 -15 1 1 2 0 0 1.14575 3.66233 2.46559 4.89513 1.7768 0. 1
</event>
<event>
 4 80 1 -1 -1 -1
 11 -1 0 0 0 0 0 0 4.98921 4.98921 0 0. 9.
 -11 -1 0 0 0 0 0 0 -5 5 0 0. 9.
 15 1 1 2 0 0 0.767089 -1.71477 -4.27851 4.99922 1.7768 0. 1
 -15 1 1 2 0 0 -0.767089 1.71477 4.26771 4.98999 1.7768 0. -1
</event>
<event>
 4 80 1 -1 -1 -1
 11 -1 0 0 0 0 0 0 5 5 0 0. 9.
 -11 -1 0 0 0 0 0 0 -5 5 0 0. 9.
 15 1 1 2 0 0 -1.47659 2.53447 -3.63846 5 1.7768 0. 1
 -15 1 1 2 0 0 1.47659 -2.53447 3.63846 5 1.7768 0. -1
</event>
<event>
 4 80 1 -1 -1 -1
 11 -1 0 0 0 0 0 0 5 5 0 0. 9.
 -11 -1 0 0 0 0 0 0 -5 5 0 0. 9.
 15 1 1 2 0 0 -3.15542 -0.931933 -3.3192 5 1.7768 0. 1
 -15 1 1 2 0 0 3.15542 0.931933 3.3192 5 1.7768 0. -1
</event>
<event>
 4 80 1 -1 -1 -1
 11 -1 0 0 0 0 0 0 4.92779 4.92779 0 0. 9.
 -11 -1 0 0 0 0 0 0 -5 5 0 0. 9.
 15 1 1 2 0 0 -3.73648 0.904352 2.55281 4.94507 1.7768 0. 1
 -15 1 1 2 0 0 3.73648 -0.904352 -2.62501 4.98273 1.7768 0. -1
</event>
<event>
 4 80 1 -1 -1 -1
 11 -1 0 0 0 0 0 0 5 5 0 0. 9.
 -11 -1 0 0 0 0 0 0 -4.03595 4.03595 0 0. 9.
 15 1 1 2 0 0 -0.98792 3.89374 1.42809 4.61891 1.7768 0. -1
 -15 1 1 2 0 0 0.98792 -3.89374 -0.464042 4.41704 1.7768 0. 1
</event>
<event>
 4 80 1 -1 -1 -1
 11 -1 0 0 0 0 0 0 5 5 0 0. 9.
 -11 -1 0 0 0 0 0 0 -4.98556 4.98556 0 0. 9.
 15 1 1 2 0 0 1.32427 -3.28385 -3.03132 4.98839 1.7768 0. -1
 -15 1 1 2 0 0 -1.32427 3.28385 3.04576 4.99717 1.7768 0. 1
</event>
<event>
 4 80 1 -1 -1 -1
 11 -1 0 0 0 0 0 0 4.99987 4.99987 0 0. 9.
 -11 -1 0 0 0 0 0 0 -5 5 0 0. 9.
 15 1 1 2 0 0 1.26491 1.50647 4.2393 4.99988 1.7768 0. 1
 -15 1 1 2 0 0 -1.26491 -1.50647 -4.23943 4.99999 1.7768 0. -1
</event>
<event>
 4 80 1 -1 -1 -1
 11 -1 0 0 0 0 0 0 1.8062 1.8062 0 0. 9.
 -11 -1 0 0 0 0 0 0 -4.37331 4.37331 0 0. 9.
 15 1 1 2 0 0 -0.492696 -0.883386 0.836286 2.20912 1.7768 0. -1
 -15 1 1 2 0 0 0.492696 0.883386 -3.4034 3.97039 1.7768 0. 1
</event>
<event>
 4 80 1 -1 -1 -1
 11 -1 0 0 0 0 0 0 4.9999 4.9999 0 0. 9.
 -11 -1 0 0 0 0 0 0 -5 5 0 0. 9.
 15 1 1 2 0 0 -2.42268 0.157937 -3.99348 4.99999 1.7768 0. -1
 -15 1 1 2 0 0 2.42268 -0.157937 3.99337 4.99991 1.7768 0. 1
</event>
<event>
 4 80 1 -1 -1 -1
 11 -1 0 0 0 0 0 0 5 5 0 0. 9.
 -11 -1 0 0 0 0 0 0 -5 5 0 0. 9.
 15 1 1 2 0 0 -0.661756 -2.68879 3.76494 5 1.7768 0. 1
 -15 1 1 2 0 0 0.661756 2.68879 -3.76494 5 1.7768 0. -1
</event>
<event>
 4 80 1 -1 -1 -1
 11 -1 0 0 0 0 0 0 5 5 0 0. 9.
 -11 -1 0 0 0 0 0 0 -5 5 0 0. 9.
 15 1 1 2 0 0 0.360755 -3.21057 -3.37703 5 1.7768 0. -1
 -15 1 1 2 0 0 -0.360755 3.21057 3.37703 5 1.7768 0. 1
</event>
<event>
 4 80 1 -1 -1 -1
 11 -1 0 0 0 0 0 0 4.98204 4.98204 0 0. 9.
 -11 -1 0 0 0 0 0 0 -4.71477 4.71477 0 0. 9.
 15 1 1 2 0 0 -2.81305 -3.45031 -0.583287 4.82865 1.7768 0. 1
 -15 1 1 2 0 0 2.81305 3.45031 0.850556 4.86817 1.7768 0. -1
</event>
<event>
 4 80 1 -1 -1 -1
 11 -1 0 0 0 0 0 0 4.98431 4.98431 0 0. 9.
 -11 -1 0 0 0 0 0 0 -4.98114 4.98114 0 0. 9.
 15 1 1 2 0 0 -1.43606 -1.34043 -4.2187 4.98139 1.7768 0. -1
 -15 1 1 2 0 0 1.43606 1.34043 4.22187 4.98407 1.7768 0. 1
</event>
<event>
 4 80 1 -1 -1 -1
 11 -1 0 0 0 0 0 0 4.99998 4.99998 0 0. 9.
 -11 -1 0 0 0 0 0 0 -5 5 0 0. 9.
 15 1 1 2 0 0 0.206156 4.57594 0.927567 4.99999 1.7768 0. 1
 -15 1 1 2 0 0 -0.206156 -4.57594 -0.927589 4.99999 1.7768 0. -1
</event>
<event>
 4 80 1 -1 -1 -1
 11 -1 0 0 0 0 0 0 5 5 0 0. 9.
 -11 -1 0 0 0 0 0 0 -5 5 0 0. 9.
 15 1 1 2 0 0 4.64254 0.486546 -0.228759 5 1.7768 0. 1
 -15 1 1 2 0 0 -4.64254 -0.486546 0.228759 5 1.7768 0. -1
</event>
<event>
 4 80 1 -1 -1 -1
 11 -1 0 0 0 0 0 0 5 5 0 0. 9.
 -11 -1 0 0 0 0 0 0 -5 5 0 0. 9.
 15 1 1 2 0 0 2.70984 1.11124 3.642 5 1.7768 0. 1
 -15 1 1 2 0 0 -2.70984 -1.11124 -3.642 5 1.7768 0. -1
</event>
<event>
 4 80 1 -1 -1 -1
 11 -1 0 0 0 0 0 0 5 5 0 0. 9.
 -11 -1 0 0 0 0 0 0 -5 5 0 0. 9.
 15 1 1 2 0 0 2.74181 -2.17331 -3.09863 5 1.7768 0. -1
 -15 1 1 2 0 0 -2.74181 2.17331 3.09863 5 1.7768 0. 1
</event>
<event>
 4 80 1 -1 -1 -1
 11 -1 0 0 0 0 0 0 5 5 0 0. 9.
 -11 -1 0 0 0 0 0 0 -5 5 0 0. 9.
 15 1 1 2 0 0 -4.48727 0.61787 1.15105 5 1.7768 0. 1
 -15 1 1 2 0 0 4.48727 -0.61787 -1.15105 5 1.7768 0. -1
</event>
<event>
 4 80 1 -1 -1 -1
 11 -1 0 0 0 0 0 0 5 5 0 0. 9.
 -11 -1 0 0 0 0 0 0 -4.95021 4.95021 0 0. 9.
 15 1 1 2 0 0 3.85779 0.317813 -2.54609 4.96224 1.7768 0. 1
 -15 1 1 2 0 0 -3.85779 -0.317813 2.59588 4.98797 1.7768 0. -1
</event>
<event>
 4 80 1 -1 -1 -1
 11 -1 0 0 0 0 0 0 4.99998 4.99998 0 0. 9.
 -11 -1 0 0 0 0 0 0 -4.93643 4.93643 0 0. 9.
 15 1 1 2 0 0 -2.21196 -2.03556 3.56569 4.99081 1.7768 0. 1
 -15 1 1 2 0 0 2.21196 2.03556 -3.50213 4.9456 1.7768 0. -1
</event>
<event>
 4 80 1 -1 -1 -1
 11 -1 0 0 0 0 0 0 5 5 0 0. 9.
 -11 -1 0 0 0 0 0 0 -1.43675 1.43675 0 0. 9.
 15 1 1 2 0 0 -0.514767 -1.18544 -0.0613953 2.19812 1.7768 0. -1
 -15 1 1 2 0 0 0.514767 1.18544 3.62464 4.23863 1.7768 0. 1
</event>
<event>
 4 80 1 -1 -1 -1
 11 -1 0 0 0 0 0 0 4.99998 4.99998 0 0. 9.
 -11 -1 0 0 0 0 0 0 -2.80899 2.80899 0 0. 9.
 15 1 1 2 0 0 -1.89542 1.10721 3.66205 4.6246 1.7768 0. 1
 -15 1 1 2 0 0 1.89542 -1.10721 -1.47106 3.18438 1.7768 0. -1
</event>
<event>
 4 80 1 -1 -1 -1
 11 -1 0 0 0 0 0 0 1.64648 1.64648 0 0. 9.
 -11 -1 0 0 0 0 0 0 -4.99416 4.99416 0 0. 9.
 15 1 1 2 0 0 0.457661 -1.36174 0.332111 2.30907 1.7768 0. 1
 -15 1 1 2 0 0 -0.457661 1.36174 -3.67979 4.33156 1.7768 0. -1
</event>
<event>
 4 80 1 -1 -1 -1
 11 -1 0 0 0 0 0 0 4.94115 4.94115 0 0. 9.
 -11 -1 0 0 0 0 0 0 -5 5 0 0. 9.
 15 1 1 2 0 0 1.35826 -1.28973 4.21797 4.94543 1.7768 0. 1
 -15 1 1 2 0 0 -1.35826 1.28973 -4.27682 4.99572 1.7768 0. -1
</event>
<event>
 4 80 1 -1 -1 -1
 11 -1 0 0 0 0 0 0 5 5 0 0. 9.
 -11 -1 0 0 0 0 0 0 -5 5 0 0. 9.
 15 1 1 2 0 0 -0.982217 -1.27301 4.38828 5 1.7768 0. -1
 -15 1 1 2 0 0 0.982217 1.27301 -4.38828 5 1.7768 0. 1
</event>
<event>
 4 80 1 -1 -1 -1
 11 -1 0 0 0 0 0 0 3.22568 3.22568 0 0. 9.
 -11 -1 0 0 0 0 0 0 -4.99995 4.99995 0 0. 9.
 15 1 1 2 0 0 2.64476 -0.876792 1.44976 3.60875 1.7768 0. 1
 -15 1 1 2 0 0 -2.64476 0.876792 -3.22403 4.61689 1.7768 0. -1
</event>
<event>
 4 80 1 -1 -1 -1
 11 -1 0 0 0 0 0 0 4.99971 4.99971 0 0. 9.
 -11 -1 0 0 0 0 0 0 -5 5 0 0. 9.
 15 1 1 2 0 0 3.62913 2.61002 1.36295 4.99982 1.7768 0. -1
 -15 1 1 2 0 0 -3.62913 -2.61002 -1.36323 4.9999 1.7768 0. 1
</event>
<event>
 4 80 1 -1 -1 -1
 11 -1 0 0 0 0 0 0 4.99988 4.99988 0 0. 9.
 -11 -1 0 0 0 0 0 0 -5 5 0 0. 9.
 15 1 1 2 0 0 -4.08501 -2.26476 -0.159008 4.99994 1.7768 0. -1
 -15 1 1 2 0 0 4.08501 2.26476 0.158888 4.99994 1.7768 0. 1
</event>
<event>
 4 80 1 -1 -1 -1
 11 -1 0 0 0 0 0 0 4.99958 4.99958 0 0. 9.
 -11 -1 0 0 0 0 0 0 -1.64584 1.64584 0 0. 9.
 15 1 1 2 0 0 -1.21613 1.79633 2.3767 3.67589 1.7768 0. 1
 -15 1 1 2 0 0 1.21613 -1.79633 0.977032 2.96953 1.7768 0. -1
</event>
<event>
 4 80 1 -1 -1 -1
 11 -1 0 0 0 0 0 0 5 5 0 0. 9.
 -11 -1 0 0 0 0 0 0 -4.96933 4.96933 0 0. 9.
 15 1 1 2 0 0 -3.32723 3.19501 0.655961 4.98664 1.7768 0. 1
 -15 1 1 2 0 0 3.32723 -3.19501 -0.625293 4.98269 1.7768 0. -1
</event>
<event>
 4 80 1 -1 -1 -1
 11 -1 0 0 0 0 0 0 5 5 0 0. 9.
 -11 -1 0 0 0 0 0 0 -5 5 0 0. 9.
 15 1 1 2 0 0 4.02685 -2.05167 -1.19056 5 1.7768 0. -1
 -15 1 1 2 0 0 -4.02685 2.05167 1.19056 5 1.7768 0. 1
</event>
<event>
 4 80 1 -1 -1 -1
 11 -1 0 0 0 0 0 0 4.82299 4.82299 0 0. 9.
 -11 -1 0 0 0 0 0 0 -5 5 0 0. 9.
 15 1 1 2 0 0 2.823 -1.99144 -3.09267 4.96563 1.7768 0. -1
 -15 1 1 2 0 0 -2.823 1.99144 2.91566 4.85736 1.7768 0. 1
</event>
<event>
 4 80 1 -1 -1 -1
 11 -1 0 0 0 0 0 0 4.99849 4.99849 0 0. 9.
 -11 -1 0 0 0 0 0 0 -4.99999 4.99999 0 0. 9.
 15 1 1 2 0 0 -1.77191 -0.21308 -4.31927 4.99989 1.7768 0. -1
 -15 1 1 2 0 0 1.77191 0.21308 4.31777 4.99859 1.7768 0. 1
</event>
<event>
 4 80 1 -1 -1 -1
 11 -1 0 0 0 0 0 0 5 5 0 0. 9.
 -11 -1 0 0 0 0 0 0 -1.73352 1.73352 0 0. 9.
 15 1 1 2 0 0 -1.16155 1.67464 0.301454 2.7207 1.7768 0. 1
 -15 1 1 2 0 0 1.16155 -1.67464 2.96502 4.01282 1.7768 0. -1
</event>
<event>
 4 80 1 -1 -1 -1
 11 -1 0 0 0 0 0 0 4.99999 4.99999 0 0. 9.
 -11 -1 0 0 0 0 0 0 -5 5 0 0. 9.
 15 1 1 2 0 0 -2.83731 3.70482 -0.257379 5 1.7768 0. 1
 -15 1 1 2 0 0 2.83731 -3.70482 0.257372 5 1.7768 0. -1
</event>
<event>
 4 80 1 -1 -1 -1
 11 -1 0 0 0 0 0 0 1.41566 1.41566 0 0. 9.
 -11 -1 0 0 0 0 0 0 -4.90054 4.90054 0 0. 9.
 15 1 1 2 0 0 -0.910142 -0.248865 -3.78057 4.28261 1.7768 0. 1
 -15 1 1 2 0 0 0.910142 0.248865 0.295691 2.03358 1.7768 0. -1
</event>
<event>
 4 80 1 -1 -1 -1
 11 -1 0 0 0 0 0 0 4.99998 4.99998 0 0. 9.
 -11 -1 0 0 0 0 0 0 -3.88591 3.88591 0 0. 9.
 15 1 1 2 0 0 -1.58553 -3.04893 2.68614 4.70988 1.7768 0. 1
 -15 1 1 2 0 0 1.58553 3.04893 -1.57208 4.17601 1.7768 0. -1
</event>
<event>
 4 80 1 -1 -1 -1
 11 -1 0 0 0 0 0 0 5 5 0 0. 9.
 -11 -1 0 0 0 0 0 0 -4.97779 4.97779 0 0. 9.
 15 1 1 2 0 0 0.731198 -2.42103 -3.90492 4.98018 1.7768 0. -1
 -15 1 1 2 0 0 -0.731198 2.42103 3.92713 4.99761 1.7768 0. 1
</event>
<event>
 4 80 1 -1 -1 -1
 11 -1 0 0 0 0 0 0 5 5 0 0. 9.
 -11 -1 0 0 0 0 0 0 -4.96149 4.96149 0 0. 9.
 15 1 1 2 0 0 2.82872 -3.41078 -1.40014 4.97526 1.7768 0. -1
 -15 1 1 2 0 0 -2.82872 3.41078 1.43865 4.98623 1.7768 0. 1
</event>
<event>
 4 80 1 -1 -1 -1
 11 -1 0 0 0 0 0 0 5 5 0 0. 9.
 -11 -1 0 0 0 0 0 0 -4.88614 4.88614 0 0. 9.
 15 1 1 2 0 0 4.18373 -1.44311 -1.2419 4.92811 1.7768 0. -1
 -15 1 1 2 0 0 -4.18373 1.44311 1.35577 4.95803 1.7768 0. 1
</event>
<event>
 4 80 1 -1 -1 -1
 11 -1 0 0 0 0 0 0 5 5 0 0. 9.
 -11 -1 0 0 0 0 0 0 -5 5 0 0. 9.
 15 1 1 2 0 0 3.79852 2.27834 1.49087 5 1.7768 0. -1
 -15 1 1 2 0 0 -3.79852 -2.27834 -1.49087 5 1.7768 0. 1
</event>
<event>
 4 80 1 -1 -1 -1
 11 -1 0 0 0 0 0 0 5 5 0 0. 9.
 -11 -1 0 0 0 0 0 0 -4.93461 4.93461 0 0. 9.
 15 1 1 2 0 0 0.452898 -4.29179 -1.66754 4.95611 1.7768 0. 1
 -15 1 1 2 0 0 -0.452898 4.29179 1.73293 4.97849 1.7768 0. -1
</event>
<event>
 4 80 1 -1 -1 -1
 11 -1 0 0 0 0 0 0 5 5 0 0. 9.
 -11 -1 0 0 0 0 0 0 -4.99533 4.99533 0 0. 9.
 15 1 1 2 0 0 -1.77762 -1.35862 -4.09805 4.99575 1.7768 0. -1
 -15 1 1 2 0 0 1.77762 1.35862 4.10272 4.99958 1.7768 0. 1
</event>
<event>
 4 80 1 -1 -1 -1
 11 -1 0 0 0 0 0 0 4.95514 4.95514 0 0. 9.
 -11 -1 0 0 0 0 0 0 -5 5 0 0. 9.
 15 1 1 2 0 0 -4.04309 -0.204029 2.26446 4.96726 1.7768 0. -1
 -15 1 1 2 0 0 4.04309 0.204029 -2.30933 4.98787 1.7768 0. 1
</event>
<event>
 4 80 1 -1 -1 -1
 11 -1 0 0 0 0 0 0 5 5 0 0. 9.
 -11 -1 0 0 0 0 0 0 -5 5 0 0. 9.
 15 1 1 2 0 0 1.1929 -2.44953 -3.79724 5 1.7768 0. -1
 -15 1 1 2 0 0 -1.1929 2.44953 3.79724 5 1.7768 0. 1
</event>
<event>
 4 80 1 -1 -1 -1
 11 -1 0 0 0 0 0 0 5 5 0 0. 9.
 -11 -1 0 0 0 0 0 0 -5 5 0 0. 9.
 15 1 1 2 0 0 3.27641 0.262867 -3.3224 5 1.7768 0. 1
 -15 1 1 2 0 0 -3.27641 -0.262867 3.3224 5 1.7768 0. -1
</event>
<event>
 4 80 1 -1 -1 -1
 11 -1 0 0 0 0 0 0 5 5 0 0. 9.
 -11 -1 0 0 0 0 0 0 -5 5 0 0. 9.
 15 1 1 2 0 0 -2.27834 -1.46134 3.80998 5 1.7768 0. 1
 -15 1 1 2 0 0 2.27834 1.46134 -3.80998 5 1.7768 0. -1
</event>
<event>
 4 80 1 -1 -1 -1
 11 -1 0 0 0 0 0 0 5 5 0 0. 9.
 -11 -1 0 0 0 0 0 0 -4.45702 4.45702 0 0. 9.
 15 1 1 2 0 0 -2.66711 -3.43758 0.716019 4.75403 1.7768 0. 1
 -15 1 1 2 0 0 2.66711 3.43758 -0.173041 4.70299 1.7768 0. -1
</event>
<event>
 4 80 1 -1 -1 -1
 11 -1 0 0 0 0 0 0 3.47867 3.47867 0 0. 9.
 -11 -1 0 0 0 0 0 0 -5 5 0 0. 9.
 15 1 1 2 0 0 0.782144 -0.723751 -4.43977 4.89948 1.7768 0. -1
 -15 1 1 2 0 0 -0.782144 0.723751 2.91845 3.57919 1.7768 0. 1
</event>
<event>
 4 80 1 -1 -1 -1
 11 -1 0 0 0 0 0 0 4.81303 4.81303 0 0. 9.
 -11 -1 0 0 0 0 0 0 -5 5 0 0. 9.
 15 1 1 2 0 0 -2.22029 3.45108 1.92376 4.86808 1.7768 0. -1
 -15 1 1 2 0 0 2.22029 -3.45108 -2.11073 4.94495 1.7768 0. 1
</event>
<event>
 4 80 1 -1 -1 -1
 11 -1 0 0 0 0 0 0 5 5 0 0. 9.
 -11 -1 0 0 0 0 0 0 -5 5 0 0. 9.
 15 1 1 2 0 0 -3.41356 1.48195 2.82732 5 1.7768 0. -1
 -15 1 1 2 0 0 3.41356 -1.48195 -2.82732 5 1.7768 0. 1
</event>
<event>
 4 80 1 -1 -1 -1
 11 -1 0 0 0 0 0 0 5 5 0 0. 9.
 -11 -1 0 0 0 0 0 0 -5 5 0 0. 9.
 15 1 1 2 0 0 4.42896 -0.701278 -1.31711 5 1.7768 0. -1
 -15 1 1 2 0 0 -4.42896 0.701278 1.31711 5 1.7768 0. 1
</event>
<event>
 4 80 1 -1 -1 -1
 11 -1 0 0 0 0 0 0 4.99965 4.99965 0 0. 9.
 -11 -1 0 0 0 0 0 0 -1.45404 1.45404 0 0. 9.
 15 1 1 2 0 0 -0.0907586 1.27273 -0.113391 2.19058 1.7768 0. 1
 -15 1 1 2 0 0 0.0907586 -1.27273 3.659 4.26311 1.7768 0. -1
</event>
<event>
 4 80 1 -1 -1 -1
 11 -1 0 0 0 0 0 0 5 5 0 0. 9.
 -11 -1 0 0 0 0 0 0 -5 5 0 0. 9.
 15 1 1 2 0 0 1.30609 -3.70998 -2.52437 5 1.7768 0. -1
 -15 1 1 2 0 0 -1.30609 3.70998 2.52437 5 1.7768 0. 1
</event>
<event>
 4 80 1 -1 -1 -1
 11 -1 0 0 0 0 0 0 4.76622 4.76622 0 0. 9.
 -11 -1 0 0 0 0 0 0 -5 5 0 0. 9.
 15 1 1 2 0 0 -3.24063 3.12928 0.499132 4.86837 1.7768 0. -1
 -15 1 1 2 0 0 3.24063 -3.12928 -0.73291 4.89786 1.7768 0. 1
</event>
<event>
 4 80 1 -1 -1 -1
 11 -1 0 0 0 0 0 0 4.91061 4.91061 0 0. 9.
 -11 -1 0 0 0 0 0 0 -5 5 0 0. 9.
 15 1 1 2 0 0 -0.432206 2.60742 3.7515 4.92107 1.7768 0. -1
 -15 1 1 2 0 0 0.432206 -2.60742 -3.84088 4.98955 1.7768 0. 1
</event>
<event>
 4 80 1 -1 -1 -1
 11 -1 0 0 0 0 0 0 5 5 0 0. 9.
 -11 -1 0 0 0 0 0 0 -5 5 0 0. 9.
 15 1 1 2 0 0 1.78792 -4.21082 0.956339 5 1.7768 0. 1
 -15 1 1 2 0 0 -1.78792 4.21082 -0.956339 5 1.7768 0. -1
</event>
<event>
 4 80 1 -1 -1 -1
 11 -1 0 0 0 0 0 0 4.99998 4.99998 0 0. 9.
 -11 -1 0 0 0 0 0 0 -4.98146 4.98146 0 0. 9.
 15 1 1 2 0 0 3.33078 2.15867 -2.43932 4.98617 1.7768 0. -1
 -15 1 1 2 0 0 -3.33078 -2.15867 2.45784 4.99526 1.7768 0. 1
</event>
<event>
 4 80 1 -1 -1 -1
 11 -1 0 0 0 0 0 0 5 5 0 0. 9.
 -11 -1 0 0 0 0 0 0 -4.83477 4.83477 0 0. 9.
 15 1 1 2 0 0 4.26411 -1.42061 0.985703 4.93256 1.7768 0. -1
 -15 1 1 2 0 0 -4.26411 1.42061 -0.820469 4.90221 1.7768 0. 1
</event>
<event>
 4 80 1 -1 -1 -1
 11 -1 0 0 0 0 0 0 4.92956 4.92956 0 0. 9.
 -11 -1 0 0 0 0 0 0 -4.63679 4.63679 0 0. 9.
 15 1 1 2 0 0 1.96168 -2.1226 -3.22358 4.68004 1.7768 0. -1
 -15 1 1 2 0 0 -1.96168 2.1226 3.51635 4.88631 1.7768 0. 1
</event>
<event>
 4 80 1 -1 -1 -1
 11 -1 0 0 0 0 0 0 4.99964 4.99964 0 0. 9.
 -11 -1 0 0 0 0 0 0 -4.96972 4.96972 0 0. 9.
 15 1 1 2 0 0 1.4316 -1.31918 4.24575 4.99738 1.7768 0. -1
 -15 1 1 2 0 0 -1.4316 1.31918 -4.21582 4.97198 1.7768 0. 1
</event>
<event>
 4 80 1 -1 -1 -1
 11 -1 0 0 0 0 0 0 4.99916 4.99916 0 0. 9.
 -11 -1 0 0 0 0 0 0 -4.99849 4.99849 0 0. 9.
 15 1 1 2 0 0 0.640631 4.52292 -0.981123 4.99876 1.7768 0. 1
 -15 1 1 2 0 0 -0.640631 -4.52292 0.981796 4.99889 1.7768 0. -1
</event>
<event>
 4 80 1 -1 -1 -1
 11 -1 0 0 0 0 0 0 4.701 4.701 0 0. 9.
 -11 -1 0 0 0 0 0 0 -1.37552 1.37552 0 0. 9.
 15 1 1 2 0 0 -1.59399 -0.286362 0.673302 2.49677 1.7768 0. -1
 -15 1 1 2 0 0 1.59399 0.286362 2.65218 3.57975 1.7768 0. 1
</event>
<event>
 4 80 1 -1 -1 -1
 11 -1 0 0 0 0 0 0 5 5 0 0. 9.
 -11 -1 0 0 0 0 0 0 -4.98576 4.98576 0 0. 9.
 15 1 1 2 0 0 1.76849 -3.27282 -2.80929 4.98886 1.7768 0. -1
 -15 1 1 2 0 0 -1.76849 3.27282 2.82354 4.9969 1.7768 0. 1
</event>
<event>
 4 80 1 -1 -1 -1
 11 -1 0 0 0 0 0 0 5 5 0 0. 9.
 -11 -1 0 0 0 0 0 0 -4.99382 4.99382 0 0. 9.
 15 1 1 2 0 0 2.54793 -0.397241 3.89688 4.99932 1.7768 0. 1
 -15 1 1 2 0 0 -2.54793 0.397241 -3.8907 4.9945 1.7768 0. -1
</event>
<event>
 4 80 1 -1 -1 -1
 11 -1 0 0 0 0 0 0 4.99994 4.99994 0 0. 9.
 -11 -1 0 0 0 0 0 0 -3.909 3.909 0 0. 9.
 15 1 1 2 0 0 2.88632 1.98665 -1.49707 4.20435 1.7768 0. -1
 -15 1 1 2 0 0 -2.88632 -1.98665 2.58801 4.70459 1.7768 0. 1
</event>
<event>
 4 80 1 -1 -1 -1
 11 -1 0 0 0 0 0 0 4.9796 4.9796 0 0. 9.
 -11 -1 0 0 0 0 0 0 -4.70628 4.70628 0 0. 9.
 15 1 1 2 0 0 -1.75963 -3.2943 -2.38007 4.77192 1.7768 0. 1
 -15 1 1 2 0 0 1.75963 3.2943 2.6534 4.91396 1.7768 0. -1
</event>
<event>
 4 80 1 -1 -1 -1
 11 -1 0 0 0 0 0 0 5 5 0 0. 9.
 -11 -1 0 0 0 0 0 0 -5 5 0 0. 9.
 15 1 1 2 0 0 1.75308 -3.55189 2.48054 5 1.7768 0. -1
 -15 1 1 2 0 0 -1.75308 3.55189 -2.48054 5 1.7768 0. 1
</event>
<event>
 4 80 1 -1 -1 -1
 11 -1 0 0 0 0 0 0 3.33907 3.33907 0 0. 9.
 -11 -1 0 0 0 0 0 0 -4.99831 4.99831 0 0. 9.
 15 1 1 2 0 0 -2.88183 1.29177 1.09524 3.78562 1.7768 0. 1
 -15 1 1 2 0 0 2.88183 -1.29177 -2.75449 4.55176 1.7768 0. -1
</event>
<event>
 4 80 1 -1 -1 -1
 11 -1 0 0 0 0 0 0 3.71418 3.71418 0 0. 9.
 -11 -1 0 0 0 0 0 0 -5 5 0 0. 9.
 15 1 1 2 0 0 -2.61402 -0.468767 -3.56633 4.78845 1.7768 0. -1
 -15 1 1 2 0 0 2.61402 0.468767 2.28051 3.92572 1.7768 0. 1
</event>
<event>
 4 80 1 -1 -1 -1
 11 -1 0 0 0 0 0 0 4.99996 4.99996 0 0. 9.
 -11 -1 0 0 0 0 0 0 -3.16366 3.16366 0 0. 9.
 15 1 1 2 0 0 2.16532 -2.18096 -0.922129 3.66787 1.7768 0. 1
 -15 1 1 2 0 0 -2.16532 2.18096 2.75842 4.49575 1.7768 0. -1
</event>
<event>
 4 80 1 -1 -1 -1
 11 -1 0 0 0 0 0 0 4.99971 4.99971 0 0. 9.
 -11 -1 0 0 0 0 0 0 -5 5 0 0. 9.
 15 1 1 2 0 0 -1.45287 2.19011 3.86423 4.99974 1.7768 0. -1
 -15 1 1 2 0 0 1.45287 -2.19011 -3.86452 4.99997 1.7768 0. 1
</event>
<event>
 4 80 1 -1 -1 -1
 11 -1 0 0 0 0 0 0 2.82127 2.82127 0 0. 9.
 -11 -1 0 0 0 0 0 0 -5 5 0 0. 9.
 15 1 1 2 0 0 1.88381 -0.500924 1.69458 3.13512 1.7768 0. -1
 -15 1 1 2 0 0 -1.88381 0.500924 -3.87331 4.68614 1.7768 0. 1
</event>
<event>
 4 80 1 -1 -1 -1
 11 -1 0 0 0 0 0 0 5 5 0 0. 9.
 -11 -1 0 0 0 0 0 0 -5 5 0 0. 9.
 15 1 1 2 0 0 2.99023 3.35058 1.29399 5 1.7768 0. -1
 -15 1 1 2 0 0 -2.99023 -3.35058 -1.29399 5 1.7768 0. 1
</event>
<event>
 4 80 1 -1 -1 -1
 11 -1 0 0 0 0 0 0 4.85631 4.85631 0 0. 9.
 -11 -1 0 0 0 0 0 0 -4.94513 4.94513 0 0. 9.
 15 1 1 2 0 0 -2.59485 -0.961776 -3.67761 4.93364 1.7768 0. -1
 -15 1 1 2 0 0 2.59485 0.961776 3.58879 4.86779 1.7768 0. 1
</event>
<event>
 4 80 1 -1 -1 -1
 11 -1 0 0 0 0 0 0 5 5 0 0. 9.
 -11 -1 0 0 0 0 0 0 -4.98359 4.98359 0 0. 9.
 15 1 1 2 0 0 2.85375 -3.06834 -2.04157 4.98842 1.7768 0. 1
 -15 1 1 2 0 0 -2.85375 3.06834 2.05798 4.99516 1.7768 0. -1
</event>
<event>
 4 80 1 -1 -1 -1
 11 -1 0 0 0 0 0 0 5 5 0 0. 9.
 -11 -1 0 0 0 0 0 0 -3.19042 3.19042 0 0. 9.
 15 1 1 2 0 0 0.397655 1.21377 4.33056 4.85209 1.7768 0. 1
 -15 1 1 2 0 0 -0.397655 -1.21377 -2.52098 3.33833 1.7768 0. -1
</event>
<event>
 4 80 1 -1 -1 -1
 11 -1 0 0 0 0 0 0 4.9978 4.9978 0 0. 9.
 -11 -1 0 0 0 0 0 0 -4.99967 4.99967 0 0. 9.
 15 1 1 2 0 0 -0.215776 -0.898254 -4.58091 4.99959 1.7768 0. -1
 -15 1 1 2 0 0 0.215776 0.898254 4.57904 4.99788 1.7768 0. 1
</event>
<event>
 4 80 1 -1 -1 -1
 11 -1 0 0 0 0 0 0 5 5 0 0. 9.
 -11 -1 0 0 0 0 0 0 -5 5 0 0. 9.
 15 1 1 2 0 0 1.42862 2.10478 -3.92061 5 1.7768 0. 1
 -15 1 1 2 0 0 -1.42862 -2.10478 3.92061 5 1.7768 0. -1
</event>
<event>
 4 80 1 -1 -1 -1
 11 -1 0 0 0 0 0 0 5 5 0 0. 9.
 -11 -1 0 0 0 0 0 0 -5 5 0 0. 9.
 15 1 1 2 0 0 -2.70822 -2.86127 -2.51415 5 1.7768 0. 1
 -15 1 1 2 0 0 2.70822 2.86127 2.51415 5 1.7768 0. -1
</event>
<event>
 4 80 1 -1 -1 -1
 11 -1 0 0 0 0 0 0 5 5 0 0. 9.
 -11 -1 0 0 0 0 0 0 -4.89855 4.89855 0 0. 9.
 15 1 1 2 0 0 -0.688864 1.7712 4.26086 4.99242 1.7768 0. 1
 -15 1 1 2 0 0 0.688864 -1.7712 -4.1594 4.90612 1.7768 0. -1
</event>
<event>
 4 80 1 -1 -1 -1
 11 -1 0 0 0 0 0 0 5 5 0 0. 9.
 -11 -1 0 0 0 0 0 0 -0.682889 0.682889 0 0. 9.
 15 1 1 2 0 0 -0.346929 0.195373 2.64039 3.20748 1.7768 0. -1
 -15 1 1 2 0 0 0.346929 -0.195373 1.67672 2.47541 1.7768 0. 1
</event>
<event>
 4 80 1 -1 -1 -1
 11 -1 0 0 0 0 0 0 5 5 0 0. 9.
 -11 -1 0 0 0 0 0 0 -4.99691 4.99691 0 0. 9.
 15 1 1 2 0 0 -4.35864 1.21901 1.16047 4.99881 1.7768 0. -1
 -15 1 1 2 0 0 4.35864 -1.21901 -1.15738 4.9981 1.7768 0. 1
</event>
<event>
 4 80 1 -1 -1 -1
 11 -1 0 0 0 0 0 0 4.99735 4.99735 0 0. 9.
 -11 -1 0 0 0 0 0 0 -5 5 0 0. 9.
 15 1 1 2 0 0 3.24456 -1.6517 2.92678 4.9979 1.7768 0. 1
 -15 1 1 2 0 0 -3.24456 1.6517 -2.92942 4.99945 1.7768 0. -1
</event>
<event>
 4 80 1 -1 -1 -1
 11 -1 0 0 0 0 0 0 5 5 0 0. 9.
 -11 -1 0 0 0 0 0 0 -4.50305 4.50305 0 0. 9.
 15 1 1 2 0 0 -1.02464 -3.2608 3.02262 4.89659 1.7768 0. 1
 -15 1 1 2 0 0 1.02464 3.2608 -2.52567 4.60645 1.7768 0. -1
</event>
<event>
 4 80 1 -1 -1 -1
 11 -1 0 0 0 0 0 0 4.66033 4.66033 0 0. 9.
 -11 -1 0 0 0 0 0 0 -2.91504 2.91504 0 0. 9.
 15 1 1 2 0 0 0.803708 3.11063 0.539089 3.71084 1.7768 0. 1
 -15 1 1 2 0 0 -0.803708 -3.11063 1.2062 3.86453 1.7768 0. -1
</event>
<event>
 4 80 1 -1 -1 -1
 11 -1 0 0 0 0 0 0 5 5 0 0. 9.
 -11 -1 0 0 0 0 0 0 -5 5 0 0. 9.
 15 1 1 2 0 0 2.24181 -0.803282 -4.02136 5 1.7768 0. 1
 -15 1 1 2 0 0 -2.24181 0.803282 4.02136 5 1.7768 0. -1
</event>
<event>
 4 80 1 -1 -1 -1
 11 -1 0 0 0 0 0 0 4.99702 4.99702 0 0. 9.
 -11 -1 0 0 0 0 0 0 -3.68203 3.68203 0 0. 9.
 15 1 1 2 0 0 0.683495 1.46867 4.25107 4.884 1.7768 0. -1
 -15 1 1 2 0 0 -0.683495 -1.46867 -2.93607 3.79505 1.7768 0. 1
</event>
<event>
 4 80 1 -1 -1 -1
 11 -1 0 0 0 0 0 0 5 5 0 0. 9.
 -11 -1 0 0 0 0 0 0 -4.86587 4.86587 0 0. 9.
 15 1 1 2 0 0 -0.380629 -1.37097 4.44322 4.99243 1.7768 0. 1
 -15 1 1 2 0 0 0.380629 1.37097 -4.30909 4.87344 1.7768 0. -1
</event>
<event>
 4 80 1 -1 -1 -1
 11 -1 0 0 0 0 0 0 5 5 0 0. 9.
 -11 -1 0 0 0 0 0 0 -4.18434 4.18434 0 0. 9.
 15 1 1 2 0 0 0.187811 -4.21035 0.367499 4.58859 1.7768 0. 1
 -15 1 1 2 0 0 -0.187811 4.21035 0.448164 4.59575 1.7768 0. -1
</event>
<event>
 4 80 1 -1 -1 -1
 11 -1 0 0 0 0 0 0 0.696539 0.696539 0 0. 9.
 -11 -1 0 0 0 0 0 0 -5 5 0 0. 9.
 15 1 1 2 0 0 -0.290233 0.0399844 -1.40538 2.28444 1.7768 0. -1
 -15 1 1 2 0 0 0.290233 -0.0399844 -2.89808 3.4121 1.7768 0. 1
</event>
<event>
 4 80 1 -1 -1 -1
 11 -1 0 0 0 0 0 0 1.79529 1.79529 0 0. 9.
 -11 -1 0 0 0 0 0 0 -5 5 0 0. 9.
 15 1 1 2 0 0 -1.14714 1.63095 -3.1418 4.12366 1.7768 0. -1
 -15 1 1 2 0 0 1.14714 -1.63095 -0.0629016 2.67163 1.7768 0. 1
</event>
<event>
 4 80 1 -1 -1 -1
 11 -1 0 0 0 0 0 0 4.99861 4.99861 0 0. 9.
 -11 -1 0 0 0 0 0 0 -4.96775 4.96775 0 0. 9.
 15 1 1 2 0 0 -0.77134 0.260574 -4.5684 4.96899 1.7768 0. 1
 -15 1 1 2 0 0 0.77134 -0.260574 4.59926 4.99738 1.7768 0. -1
</event>
<event>
 4 80 1 -1 -1 -1
 11 -1 0 0 0 0 0 0 4.99809 4.99809 0 0. 9.
 -11 -1 0 0 0 0 0 0 -4.99883 4.99883 0 0. 9.
 15 1 1 2 0 0 0.8397 3.28216 3.21664 4.99822 1.7768 0. 1
 -15 1 1 2 0 0 -0.8397 -3.28216 -3.21739 4.9987 1.7768 0. -1
</event>
<event>
 4 80 1 -1 -1 -1
 11 -1 0 0 0 0 0 0 5 5 0 0. 9.
 -11 -1 0 0 0 0 0 0 -1.27768 1.27768 0 0. 9.
 15 1 1 2 0 0 0.022369 1.47617 3.13435 3.89377 1.7768 0. -1
 -15 1 1 2 0 0 -0.022369 -1.47617 0.587969 2.38391 1.7768 0. 1
</event>
<event>
 4 80 1 -1 -1 -1
 11 -1 0 0 0 0 0 0 5 5 0 0. 9.
 -11 -1 0 0 0 0 0 0 -1.80727 1.80727 0 0. 9.
 15 1 1 2 0 0 -0.999502 1.84741 2.96761 4.04677 1.7768 0. 1
 -15 1 1 2 0 0 0.999502 -1.84741 0.22512 2.7605 1.7768 0. -1
</event>
<event>
 4 80 1 -1 -1 -1
 11 -1 0 0 0 0 0 0 5 5 0 0. 9.
 -11 -1 0 0 0 0 0 0 -4.99996 4.99996 0 0. 9.
 15 1 1 2 0 0 -0.389604 -0.83998 -4.58089 4.99996 1.7768 0. 1
 -15 1 1 2 0 0 0.389604 0.83998 4.58093 5 1.7768 0. -1
</event>
<event>
 4 80 1 -1 -1 -1
 11 -1 0 0 0 0 0 0 4.0646 4.0646 0 0. 9.
 -11 -1 0 0 0 0 0 0 -4.9986 4.9986 0 0. 9.
 15 1 1 2 0 0 -1.83166 3.49087 -1.74601 4.66341 1.7768 0. -1
 -15 1 1 2 0 0 1.83166 -3.49087 0.812005 4.3998 1.7768 0. 1
</event>
<event>
 4 80 1 -1 -1 -1
 11 -1 0 0 0 0 0 0 5 5 0 0. 9.
 -11 -1 0 0 0 0 0 0 -5 5 0 0. 9.
 15 1 1 2 0 0 -0.366255 -2.03963 4.18904 5 1.7768 0. -1
 -15 1 1 2 0 0 0.366255 2.03963 -4.18904 5 1.7768 0. 1
</event>
<event>
 4 80 1 -1 -1 -1
 11 -1 0 0 0 0 0 0 4.99987 4.99987 0 0. 9.
 -11 -1 0 0 0 0 0 0 -5 5 0 0. 9.
 15 1 1 2 0 0 0.90558 -4.2074 1.82184 4.99991 1.7768 0. -1
 -15 1 1 2 0 0 -0.90558 4.2074 -1.82197 4.99996 1.7768 0. 1
</event>
<event>
 4 80 1 -1 -1 -1
 11 -1 0 0 0 0 0 0 5 5 0 0. 9.
 -11 -1 0 0 0 0 0 0 -4.98334 4.98334 0 0. 9.
 15 1 1 2 0 0 -3.11991 -3.34944 0.906321 4.99317 1.7768 0. -1
 -15 1 1 2 0 0 3.11991 3.34944 -0.88966 4.99017 1.7768 0. 1
</event>
<event>
 4 80 1 -1 -1 -1
 11 -1 0 0 0 0 0 0 5 5 0 0. 9.
 -11 -1 0 0 0 0 0 0 -5 5 0 0. 9.
 15 1 1 2 0 0 0.762714 1.67281 -4.29677 5 1.7768 0. -1
 -15 1 1 2 0 0 -0.762714 -1.67281 4.29677 5 1.7768 0. 1
</event>
<event>
 4 80 1 -1 -1 -1
 11 -1 0 0 0 0 0 0 4.99979 4.99979 0 0. 9.
 -11 -1 0 0 0 0 0 0 -4.97625 4.97625 0 0. 9.
 15 1 1 2 0 0 -2.57823 1.91218 -3.3674 4.98005 1.7768 0. 1
 -15 1 1 2 0 0 2.57823 -1.91218 3.39094 4.99599 1.7768 0. -1
</event>
<event>
 4 80 1 -1 -1 -1
 11 -1 0 0 0 0 0 0 5 5 0 0. 9.
 -11 -1 0 0 0 0 0 0 -5 5 0 0. 9.
 15 1 1 2 0 0 4.52797 1.08886 -0.392569 5 1.7768 0. -1
 -15 1 1 2 0 0 -4.52797 -1.08886 0.392569 5 1.7768 0. 1
</event>
<event>
 4 80 1 -1 -1 -1
 11 -1 0 0 0 0 0 0 5 5 0 0. 9.
 -11 -1 0 0 0 0 0 0 -5 5 0 0. 9.
 15 1 1 2 0 0 0.215279 -3.38039 -3.22007 5 1.7768 0. 1
 -15 1 1 2 0 0 -0.215279 3.38039 3.22007 5 1.7768 0. -1
</event>
<event>
 4 80 1 -1 -1 -1
 11 -1 0 0 0 0 0 0 4.99999 4.99999 0 0. 9.
 -11 -1 0 0 0 0 0 0 -5 5 0 0. 9.
 15 1 1 2 0 0 3.21039 -1.59586 -2.99815 5 1.7768 0. -1
 -15 1 1 2 0 0 -3.21039 1.59586 2.99814 4.99999 1.7768 0. 1
</event>
<event>
 4 80 1 -1 -1 -1
 11 -1 0 0 0 0 0 0 4.96891 4.96891 0 0. 9.
 -11 -1 0 0 0 0 0 0 -4.99707 4.99707 0 0. 9.
 15 1 1 2 0 0 3.85548 1.53212 -2.126 4.98896 1.7768 0. -1
 -15 1 1 2 0 0 -3.85548 -1.53212 2.09784 4.97703 1.7768 0. 1
</event>
<event>
 4 80 1 -1 -1 -1
 11 -1 0 0 0 0 0 0 4.99998 4.99998 0 0. 9.
 -11 -1 0 0 0 0 0 0 -4.64617 4.64617 0 0. 9.
 15 1 1 2 0 0 4.12627 -0.577231 1.82535 4.88354 1.7768 0. -1
 -15 1 1 2 0 0 -4.12627 0.577231 -1.47154 4.76261 1.7768 0. 1
</event>
<event>
 4 80 1 -1 -1 -1
 11 -1 0 0 0 0 0 0 5 5 0 0. 9.
 -11 -1 0 0 0 0 0 0 -5 5 0 0. 9.
 15 1 1 2 0 0 -1.61145 1.64347 -4.06749 5 1.7768 0. -1
 -15 1 1 2 0 0 1.61145 -1.64347 4.06749 5 1.7768 0. 1
</event>
<event>
 4 80 1 -1 -1 -1
 11 -1 0 0 0 0 0 0 4.00814 4.00814 0 0. 9.
 -11 -1 0 0 0 0 0 0 -5 5 0 0. 9.
 15 1 1 2 0 0 2.46616 -3.12924 0.514646 4.3928 1.7768 0. -1
 -15 1 1 2 0 0 -2.46616 3.12924 -1.5065 4.61534 1.7768 0. 1
</event>
<event>
 4 80 1 -1 -1 -1
 11 -1 0 0 0 0 0 0 5 5 0 0. 9.
 -11 -1 0 0 0 0 0 0 -5 5 0 0. 9.
 15 1 1 2 0 0 1.39334 -4.45517 0.228862 5 1.7768 0. -1
 -15 1 1 2 0 0 -1.39334 4.45517 -0.228863 5 1.7768 0. 1
</event>
<event>
 4 80 1 -1 -1 -1
 11 -1 0 0 0 0 0 0 3.06422 3.06422 0 0. 9.
 -11 -1 0 0 0 0 0 0 -5 5 0 0. 9.
 15 1 1 2 0 0 0.129109 2.45521 1.5802 3.42045 1.7768 0. -1
 -15 1 1 2 0 0 -0.129109 -2.45521 -3.51598 4.64377 1.7768 0. 1
</event>
<event>
 4 80 1 -1 -1 -1
 11 -1 0 0 0 0 0 0 4.85916 4.85916 0 0. 9.
 -11 -1 0 0 0 0 0 0 -5 5 0 0. 9.
 15 1 1 2 0 0 -1.33749 -0.315867 -4.45828 4.99226 1.7768 0. -1
 -15 1 1 2 0 0 1.33749 0.315867 4.31744 4.8669 1.7768 0. 1
</event>
<event>
 4 80 1 -1 -1 -1
 11 -1 0 0 0 0 0 0 5 5 0 0. 9.
 -11 -1 0 0 0 0 0 0 -5 5 0 0. 9.
 15 1 1 2 0 0 -0.00948182 4.42511 1.50354 5 1.7768 0. 1
 -15 1 1 2 0 0 0.00948182 -4.42511 -1.50354 5 1.7768 0. -1
</event>
<event>
 4 80 1 -1 -1 -1
 11 -1 0 0 0 0 0 0 4.99982 4.99982 0 0. 9.
 -11 -1 0 0 0 0 0 0 -5 5 0 0. 9.
 15 1 1 2 0 0 -0.833947 1.71287 -4.26764 4.99999 1.7768 0. -1
 -15 1 1 2 0 0 0.833947 -1.71287 4.26745 4.99983 1.7768 0. 1
</event>
<event>
 4 80 1 -1 -1 -1
 11 -1 0 0 0 0 0 0 5 5 0 0. 9.
 -11 -1 0 0 0 0 0 0 -4.99341 4.99341 0 0. 9.
 15 1 1 2 0 0 2.43667 -2.98908 2.63719 4.99844 1.7768 0. -1
 -15 1 1 2 0 0 -2.43667 2.98908 -2.6306 4.99497 1.7768 0. 1
</event>
<event>
 4 80 1 -1 -1 -1
 11 -1 0 0 0 0 0 0 5 5 0 0. 9.
 -11 -1 0 0 0 0 0 0 -5 5 0 0. 9.
 15 1 1 2 0 0 -4.04309 0.712279 2.23346 5 1.7768 0. -1
 -15 1 1 2 0 0 4.04309 -0.712279 -2.23346 5 1.7768 0. 1
</event>
<event>
 4 80 1 -1 -1 -1
 11 -1 0 0 0 0 0 0 5 5 0 0. 9.
 -11 -1 0 0 0 0 0 0 -4.99936 4.99936 0 0. 9.
 15 1 1 2 0 0 -1.13153 0.0278778 4.53441 4.99997 1.7768 0. -1
 -15 1 1 2 0 0 1.13153 -0.0278778 -4.53377 4.99939 1.7768 0. 1
</event>
<event>
 4 80 1 -1 -1 -1
 11 -1 0 0 0 0 0 0 4.99696 4.99696 0 0. 9.
 -11 -1 0 0 0 0 0 0 -5 5 0 0. 9.
 15 1 1 2 0 0 4.58623 0.106883 -0.885923 4.99875 1.7768 0. -1
 -15 1 1 2 0 0 -4.58623 -0.106883 0.882883 4.99821 1.7768 0. 1
</event>
<event>
 4 80 1 -1 -1 -1
 11 -1 0 0 0 0 0 0 5 5 0 0. 9.
 -11 -1 0 0 0 0 0 0 -2.61262 2.61262 0 0. 9.
 15 1 1 2 0 0 0.86484 -1.04176 4.18579 4.74466 1.7768 0. -1
 -15 1 1 2 0 0 -0.86484 1.04176 -1.79841 2.86796 1.7768 0. 1
</event>
<event>
 4 80 1 -1 -1 -1
 11 -1 0 0 0 0 0 0 5 5 0 0. 9.
 -11 -1 0 0 0 0 0 0 -4.94528 4.94528 0 0. 9.
 15 1 1 2 0 0 -4.34056 0.744872 -1.44691 4.96453 1.7768 0. 1
 -15 1 1 2 0 0 4.34056 -0.744872 1.50163 4.98075 1.7768 0. -1
</event>
<event>
 4 80 1 -1 -1 -1
 11 -1 0 0 0 0 0 0 4.99607 4.99607 0 0. 9.
 -11 -1 0 0 0 0 0 0 -5 5 0 0. 9.
 15 1 1 2 0 0 -1.10721 -4.44318 -0.926555 4.9984 1.7768 0. 1
 -15 1 1 2 0 0 1.10721 4.44318 0.922627 4.99767 1.7768 0. -1
</event>
<event>
 4 80 1 -1 -1 -1
 11 -1 0 0 0 0 0 0 5 5 0 0. 9.
 -11 -1 0 0 0 0 0 0 -5 5 0 0. 9.
 15 1 1 2 0 0 -4.32054 0.64929 1.65941 5 1.7768 0. -1
 -15 1 1 2 0 0 4.32054 -0.64929 -1.65941 5 1.7768 0. 1
</event>
<event>
 4 80 1 -1 -1 -1
 11 -1 0 0 0 0 0 0 5 5 0 0. 9.
 -11 -1 0 0 0 0 0 0 -4.99947 4.99947 0 0. 9.
 15 1 1 2 0 0 0.0468731 -0.93434 4.57896 4.99998 1.7768 0. -1
 -15 1 1 2 0 0 -0.0468731 0.93434 -4.57843 4.99949 1.7768 0. 1
</event>
<event>
 4 80 1 -1 -1 -1
 11 -1 0 0 0 0 0 0 5 5 0 0. 9.
 -11 -1 0 0 0 0 0 0 -4.99995 4.99995 0 0. 9.
 15 1 1 2 0 0 0.302489 4.1444 -2.13878 4.99997 1.7768 0. 1
 -15 1 1 2 0 0 -0.302489 -4.1444 2.13883 4.99999 1.7768 0. -1
</event>
<event>
 4 80 1 -1 -1 -1
 11 -1 0 0 0 0 0 0 4.99998 4.99998 0 0. 9.
 -11 -1 0 0 0 0 0 0 -5 5 0 0. 9.
 15 1 1 2 0 0 2.92933 1.2774 3.41018 4.99998 1.7768 0. -1
 -15 1 1 2 0 0 -2.92933 -1.2774 -3.41021 5 1.7768 0. 1
</event>
<event>
 4 80 1 -1 -1 -1
 11 -1 0 0 0 0 0 0 5 5 0 0. 9.
 -11 -1 0 0 0 0 0 0 -5 5 0 0. 9.
 15 1 1 2 0 0 1.73116 -4.3403 0.0844652 5 1.7768 0. 1
 -15 1 1 2 0 0 -1.73116 4.3403 -0.0844652 5 1.7768 0. -1
</event>
<event>
 4 80 1 -1 -1 -1
 11 -1 0 0 0 0 0 0 4.99851 4.99851 0 0. 9.
 -11 -1 0 0 0 0 0 0 -5 5 0 0. 9.
 15 1 1 2 0 0 2.65322 1.75712 -3.42241 4.99977 1.7768 0. 1
 -15 1 1 2 0 0 -2.65322 -1.75712 3.42092 4.99875 1.7768 0. -1
</event>
<event>
 4 80 1 -1 -1 -1
 11 -1 0 0 0 0 0 0 4.98451 4.98451 0 0. 9.
 -11 -1 0 0 0 0 0 0 -5 5 0 0. 9.
 15 1 1 2 0 0 -3.27953 -2.63291 -2.02697 4.99539 1.7768 0. 1
 -15 1 1 2 0 0 3.27953 2.63291 2.01149 4.98912 1.7768 0. -1
</event>
<event>
 4 80 1 -1 -1 -1
 11 -1 0 0 0 0 0 0 4.99924 4.99924 0 0. 9.
 -11 -1 0 0 0 0 0 0 -5 5 0 0. 9.
 15 1 1 2 0 0 1.59367 -0.53954 4.35939 4.99929 1.7768 0. -1
 -15 1 1 2 0 0 -1.59367 0.53954 -4.36015 4.99995 1.7768 0. 1
</event>
<event>
 4 80 1 -1 -1 -1
 11 -1 0 0 0 0 0 0 4.99153 4.99153 0 0. 9.
 -11 -1 0 0 0 0 0 0 -5 5 0 0. 9.
 15 1 1 2 0 0 -2.33269 0.848789 3.95026 4.99241 1.7768 0. 1
 -15 1 1 2 0 0 2.33269 -0.848789 -3.95873 4.99911 1.7768 0. -1
</event>
<event>
 4 80 1 -1 -1 -1
 11 -1 0 0 0 0 0 0 5 5 0 0. 9.
 -11 -1 0 0 0 0 0 0 -5 5 0 0. 9.
 15 1 1 2 0 0 0.373056 -3.03348 3.53569 5 1.7768 0. -1
 -15 1 1 2 0 0 -0.373056 3.03348 -3.53569 5 1.7768 0. 1
</event>
<event>
 4 80 1 -1 -1 -1
 11 -1 0 0 0 0 0 0 4.79687 4.79687 0 0. 9.
 -11 -1 0 0 0 0 0 0 -5 5 0 0. 9.
 15 1 1 2 0 0 2.00007 1.11232 3.84759 4.81656 1.7768 0. 1
 -15 1 1 2 0 0 -2.00007 -1.11232 -4.05072 4.98032 1.7768 0. -1
</event>
<event>
 4 80 1 -1 -1 -1
 11 -1 0 0 0 0 0 0 4.96177 4.96177 0 0. 9.
 -11 -1 0 0 0 0 0 0 -5 5 0 0. 9.
 15 1 1 2 0 0 0.901962 4.40549 1.17638 4.97629 1.7768 0. -1
 -15 1 1 2 0 0 -0.901962 -4.40549 -1.21461 4.98547 1.7768 0. 1
</event>
<event>
 4 80 1 -1 -1 -1
 11 -1 0 0 0 0 0 0 4.4104 4.4104 0 0. 9.
 -11 -1 0 0 0 0 0 0 -1.28341 1.28341 0 0. 9.
 15 1 1 2 0 0 0.493008 -1.17818 2.68053 3.46037 1.7768 0. 1
 -15 1 1 2 0 0 -0.493008 1.17818 0.44646 2.23343 1.7768 0. -1
</event>
<event>
 4 80 1 -1 -1 -1
 11 -1 0 0 0 0 0 0 4.12863 4.12863 0 0. 9.
 -11 -1 0 0 0 0 0 0 -5 5 0 0. 9.
 15 1 1 2 0 0 -0.625334 1.39429 3.47452 4.19107 1.7768 0. -1
 -15 1 1 2 0 0 0.625334 -1.39429 -4.34588 4.93756 1.7768 0. 1
</event>
<event>
 4 80 1 -1 -1 -1
 11 -1 0 0 0 0 0 0 4.99995 4.99995 0 0. 9.
 -11 -1 0 0 0 0 0 0 -5 5 0 0. 9.
 15 1 1 2 0 0 4.40619 0.818079 1.32598 4.99997 1.7768 0. 1
 -15 1 1 2 0 0 -4.40619 -0.818079 -1.32602 4.99998 1.7768 0. -1
</event>
<event>
 4 80 1 -1 -1 -1
 11 -1 0 0 0 0 0 0 5 5 0 0. 9.
 -11 -1 0 0 0 0 0 0 -5 5 0 0. 9.
 15 1 1 2 0 0 -0.905797 -4.03219 2.18248 5 1.7768 0. -1
 -15 1 1 2 0 0 0.905797 4.03219 -2.18248 5 1.7768 0. 1
</event>
<event>
 4 80 1 -1 -1 -1
 11 -1 0 0 0 0 0 0 5 5 0 0. 9.
 -11 -1 0 0 0 0 0 0 -4.99888 4.99888 0 0. 9.
 15 1 1 2 0 0 -3.25692 0.789964 3.25711 4.99981 1.7768 0. -1
 -15 1 1 2 0 0 3.25692 -0.789964 -3.256 4.99908 1.7768 0. 1
</event>
<event>
 4 80 1 -1 -1 -1
 11 -1 0 0 0 0 0 0 5 5 0 0. 9.
 -11 -1 0 0 0 0 0 0 -4.89253 4.89253 0 0. 9.
 15 1 1 2 0 0 2.37593 1.87512 -3.43126 4.9084 1.7768 0. 1
 -15 1 1 2 0 0 -2.37593 -1.87512 3.53874 4.98412 1.7768 0. -1
</event>
<event>
 4 80 1 -1 -1 -1
 11 -1 0 0 0 0 0 0 2.07617 2.07617 0 0. 9.
 -11 -1 0 0 0 0 0 0 -4.99161 4.99161 0 0. 9.
 15 1 1 2 0 0 2.17826 0.0889788 -3.177 4.24308 1.7768 0. -1
 -15 1 1 2 0 0 -2.17826 -0.0889788 0.261555 2.82469 1.7768 0. 1
</event>
<event>
 4 80 1 -1 -1 -1
 11 -1 0 0 0 0 0 0 5 5 0 0. 9.
 -11 -1 0 0 0 0 0 0 -5 5 0 0. 9.
 15 1 1 2 0 0 0.332286 2.37718 -4.01009 5 1.7768 0. 1
 -15 1 1 2 0 0 -0.332286 -2.37718 4.01009 5 1.7768 0. -1
</event>
<event>
 4 80 1 -1 -1 -1
 11 -1 0 0 0 0 0 0 4.52394 4.52394 0 0. 9.
 -11 -1 0 0 0 0 0 0 -5 5 0 0. 9.
 15 1 1 2 0 0 -4.10556 1.19759 0.845961 4.70779 1.7768 0. 1
 -15 1 1 2 0 0 4.10556 -1.19759 -1.32202 4.81615 1.7768 0. -1
</event>
<event>
 4 80 1 -1 -1 -1
 11 -1 0 0 0 0 0 0 4.53628 4.53628 0 0. 9.
 -11 -1 0 0 0 0 0 0 -5 5 0 0. 9.
 15 1 1 2 0 0 1.21321 2.73094 -3.49052 4.9266 1.7768 0. -1
 -15 1 1 2 0 0 -1.21321 -2.73094 3.02681 4.60969 1.7768 0. 1
</event>
<event>
 4 80 1 -1 -1 -1
 11 -1 0 0 0 0 0 0 4.99996 4.99996 0 0. 9.
 -11 -1 0 0 0 0 0 0 -5 5 0 0. 9.
 15 1 1 2 0 0 -1.85197 -3.96759 1.63415 4.99997 1.7768 0. 1
 -15 1 1 2 0 0 1.85197 3.96759 -1.63419 4.99998 1.7768 0. -1
</event>
<event>
 4 80 1 -1 -1 -1
 11 -1 0 0 0 0 0 0 4.99974 4.99974 0 0. 9.
 -11 -1 0 0 0 0 0 0 -5 5 0 0. 9.
 15 1 1 2 0 0 0.616674 4.5508 -0.866699 4.99989 1.7768 0. 1
 -15 1 1 2 0 0 -0.616674 -4.5508 0.866441 4.99985 1.7768 0. -1
</event>
<event>
 4 80 1 -1 -1 -1
 11 -1 0 0 0 0 0 0 5 5 0 0. 9.
 -11 -1 0 0 0 0 0 0 -5 5 0 0. 9.
 15 1 1 2 0 0 3.18598 -3.2337 1.1113 5 1.7768 0. 1
 -15 1 1 2 0 0 -3.18598 3.2337 -1.1113 5 1.7768 0. -1
</event>
<event>
 4 80 1 -1 -1 -1
 11 -1 0 0 0 0 0 0 3.8474 3.8474 0 0. 9.
 -11 -1 0 0 0 0 0 0 -5 5 0 0. 9.
 15 1 1 2 0 0 1.637 1.10013 2.94501 3.96496 1.7768 0. 1
 -15 1 1 2 0 0 -1.637 -1.10013 -4.09761 4.88244 1.7768 0. -1
</event>
<event>
 4 80 1 -1 -1 -1
 11 -1 0 0 0 0 0 0 4.97756 4.97756 0 0. 9.
 -11 -1 0 0 0 0 0 0 -4.99999 4.99999 0 0. 9.
 15 1 1 2 0 0 3.19343 1.05119 3.21787 4.98151 1.7768 0. -1
 -15 1 1 2 0 0 -3.19343 -1.05119 -3.2403 4.99603 1.7768 0. 1
</event>
<event>
 4 80 1 -1 -1 -1
 11 -1 0 0 0 0 0 0 4.99989 4.99989 0 0. 9.
 -11 -1 0 0 0 0 0 0 -3.92914 3.92914 0 0. 9.
 15 1 1 2 0 0 0.226593 3.93592 1.51442 4.58192 1.7768 0. 1
 -15 1 1 2 0 0 -0.226593 -3.93592 -0.44367 4.34711 1.7768 0. -1
</event>
<event>
 4 80 1 -1 -1 -1
 11 -1 0 0 0 0 0 0 1.9963 1.9963 0 0. 9.
 -11 -1 0 0 0 0 0 0 -4.99896 4.99896 0 0. 9.
 15 1 1 2 0 0 0.581582 -2.46885 -0.81143 3.2015 1.7768 0. -1
 -15 1 1 2 0 0 -0.581582 2.46885 -2.19123 3.79377 1.7768 0. 1
</event>
<event>
 4 80 1 -1 -1 -1
 11 -1 0 0 0 0 0 0 5 5 0 0. 9.
 -11 -1 0 0 0 0 0 0 -5 5 0 0. 9.
 15 1 1 2 0 0 -4.5111 1.01467 -0.68019 5 1.7768 0. -1
 -15 1 1 2 0 0 4.5111 -1.01467 0.68019 5 1.7768 0. 1
</event>
<event>
 4 80 1 -1 -1 -1
 11 -1 0 0 0 0 0 0 5 5 0 0. 9.
 -11 -1 0 0 0 0 0 0 -4.99997 4.99997 0 0. 9.
 15 1 1 2 0 0 2.8478 -3.44281 1.37088 4.99999 1.7768 0. -1
 -15 1 1 2 0 0 -2.8478 3.44281 -1.37085 4.99998 1.7768 0. 1
</event>
<event>
 4 80 1 -1 -1 -1
 11 -1 0 0 0 0 0 0 4.99831 4.99831 0 0. 9.
 -11 -1 0 0 0 0 0 0 -4.99758 4.99758 0 0. 9.
 15 1 1 2 0 0 -2.39943 -0.317653 3.99581 4.99824 1.7768 0. -1
 -15 1 1 2 0 0 2.39943 0.317653 -3.99508 4.99766 1.7768 0. 1
</event>
<event>
 4 80 1 -1 -1 -1
 11 -1 0 0 0 0 0 0 5 5 0 0. 9.
 -11 -1 0 0 0 0 0 0 -5 5 0 0. 9.
 15 1 1 2 0 0 1.09676 3.45631 2.94844 5 1.7768 0. -1
 -15 1 1 2 0 0 -1.09676 -3.45631 -2.94844 5 1.7768 0. 1
</event>
<event>
 4 80 1 -1 -1 -1
 11 -1 0 0 0 0 0 0 5 5 0 0. 9.
 -11 -1 0 0 0 0 0 0 -3.17573 3.17573 0 0. 9.
 15 1 1 2 0 0 -1.13849 -0.273583 4.36823 4.85903 1.7768 0. 1
 -15 1 1 2 0 0 1.13849 0.273583 -2.54396 3.3167 1.7768 0. -1
</event>
<event>
 4 80 1 -1 -1 -1
 11 -1 0 0 0 0 0 0 3.37154 3.37154 0 0. 9.
 -11 -1 0 0 0 0 0 0 -4.99979 4.99979 0 0. 9.
 15 1 1 2 0 0 0.418151 -1.43235 2.63898 3.51403 1.7768 0. 1
 -15 1 1 2 0 0 -0.418151 1.43235 -4.26723 4.85731 1.7768 0. -1
</event>
<event>
 4 80 1 -1 -1 -1
 11 -1 0 0 0 0 0 0 4.99996 4.99996 0 0. 9.
 -11 -1 0 0 0 0 0 0 -1.39036 1.39036 0 0. 9.
 15 1 1 2 0 0 1.3341 -1.41324 1.64697 3.10601 1.7768 0. -1
 -15 1 1 2 0 0 -1.3341 1.41324 1.96263 3.28431 1.7768 0. 1
</event>
<event>
 4 80 1 -1 -1 -1
 11 -1 0 0 0 0 0 0 4.9807 4.9807 0 0. 9.
 -11 -1 0 0 0 0 0 0 -5 5 0 0. 9.
 15 1 1 2 0 0 -1.3959 -3.28843 -3.0069 4.99615 1.7768 0. -1
 -15 1 1 2 0 0 1.3959 3.28843 2.98759 4.98455 1.7768 0. 1
</event>
<event>
 4 80 1 -1 -1 -1
 11 -1 0 0 0 0 0 0 5 5 0 0. 9.
 -11 -1 0 0 0 0 0 0 -5 5 0 0. 9.
 15 1 1 2 0 0 1.29365 2.84686 -3.47335 5 1.7768 0. 1
 -15 1 1 2 0 0 -1.29365 -2.84686 3.47335 5 1.7768 0. -1
</event>
<event>
 4 80 1 -1 -1 -1
 11 -1 0 0 0 0 0 0 5 5 0 0. 9.
 -11 -1 0 0 0 0 0 0 -5 5 0 0. 9.
 15 1 1 2 0 0 -3.75164 1.2484 -2.49178 5 1.7768 0. -1
 -15 1 1 2 0 0 3.75164 -1.2484 2.49178 5 1.7768 0. 1
</event>
<event>
 4 80 1 -1 -1 -1
 11 -1 0 0 0 0 0 0 5 5 0 0. 9.
 -11 -1 0 0 0 0 0 0 -0.798913 0.798913 0 0. 9.
 15 1 1 2 0 0 0.866568 0.0482346 1.68117 2.59564 1.7768 0. 1
 -15 1 1 2 0 0 -0.866568 -0.0482346 2.51992 3.20328 1.7768 0. -1
</event>
<event>
 4 80 1 -1 -1 -1
 11 -1 0 0 0 0 0 0 4.99983 4.99983 0 0. 9.
 -11 -1 0 0 0 0 0 0 -5 5 0 0. 9.
 15 1 1 2 0 0 -3.88585 2.59046 0.176349 4.99991 1.7768 0. -1
 -15 1 1 2 0 0 3.88585 -2.59046 -0.176524 4.99992 1.7768 0. 1
</event>
<event>
 4 80 1 -1 -1 -1
 11 -1 0 0 0 0 0 0 0.711129 0.711129 0 0. 9.
 -11 -1 0 0 0 0 0 0 -5 5 0 0. 9.
 15 1 1 2 0 0 -0.251759 -0.395581 -2.78344 3.33544 1.7768 0. -1
 -15 1 1 2 0 0 0.251759 0.395581 -1.50543 2.37569 1.7768 0. 1
</event>
<event>
 4 80 1 -1 -1 -1
 11 -1 0 0 0 0 0 0 4.99449 4.99449 0 0. 9.
 -11 -1 0 0 0 0 0 0 -5 5 0 0. 9.
 15 1 1 2 0 0 1.1675 -4.50924 -0.346903 4.99744 1.7768 0. -1
 -15 1 1 2 0 0 -1.1675 4.50924 0.341396 4.99706 1.7768 0. 1
</event>
<event>
 4 80 1 -1 -1 -1
 11 -1 0 0 0 0 0 0 5 5 0 0. 9.
 -11 -1 0 0 0 0 0 0 -5 5 0 0. 9.
 15 1 1 2 0 0 -4.29407 -1.75878 0.556761 5 1.7768 0. 1
 -15 1 1 2 0 0 4.29407 1.75878 -0.556761 5 1.7768 0. -1
</event>
<event>
 4 80 1 -1 -1 -1
 11 -1 0 0 0 0 0 0 5 5 0 0. 9.
 -11 -1 0 0 0 0 0 0 -5 5 0 0. 9.
 15 1 1 2 0 0 -1.13636 1.93044 4.10175 5 1.7768 0. -1
 -15 1 1 2 0 0 1.13636 -1.93044 -4.10175 5 1.7768 0. 1
</event>
<event>
 4 80 1 -1 -1 -1
 11 -1 0 0 0 0 0 0 4.98976 4.98976 0 0. 9.
 -11 -1 0 0 0 0 0 0 -5 5 0 0. 9.
 15 1 1 2 0 0 -4.65098 -0.375085 -0.141964 4.99502 1.7768 0. -1
 -15 1 1 2 0 0 4.65098 0.375085 0.131721 4.99474 1.7768 0. 1
</event>
<event>
 4 80 1 -1 -1 -1
 11 -1 0 0 0 0 0 0 1.04449 1.04449 0 0. 9.
 -11 -1 0 0 0 0 0 0 -5 5 0 0. 9.
 15 1 1 2 0 0 1.34848 -0.270878 -2.52774 3.38216 1.7768 0. 1
 -15 1 1 2 0 0 -1.34848 0.270878 -1.42777 2.66233 1.7768 0. -1
</event>
<event>
 4 80 1 -1 -1 -1
 11 -1 0 0 0 0 0 0 5 5 0 0. 9.
 -11 -1 0 0 0 0 0 0 -5 5 0 0. 9.
 15 1 1 2 0 0 2.65255 -1.20085 -3.65571 5 1.7768 0. 1
 -15 1 1 2 0 0 -2.65255 1.20085 3.65571 5 1.7768 0. -1
</event>
<event>
 4 80 1 -1 -1 -1
 11 -1 0 0 0 0 0 0 4.94753 4.94753 0 0. 9.
 -11 -1 0 0 0 0 0 0 -5 5 0 0. 9.
 15 1 1 2 0 0 1.99313 1.66243 -3.87904 4.99409 1.7768 0. 1
 -15 1 1 2 0 0 -1.99313 -1.66243 3.82657 4.95345 1.7768 0. -1
</event>
<event>
 4 80 1 -1 -1 -1
 11 -1 0 0 0 0 0 0 4.98487 4.98487 0 0. 9.
 -11 -1 0 0 0 0 0 0 -4.42372 4.42372 0 0. 9.
 15 1 1 2 0 0 -2.08355 -1.15568 -3.36145 4.48707 1.7768 0. 1
 -15 1 1 2 0 0 2.08355 1.15568 3.9226 4.92152 1.7768 0. -1
</event>
<event>
 4 80 1 -1 -1 -1
 11 -1 0 0 0 0 0 0 4.72705 4.72705 0 0. 9.
 -11 -1 0 0 0 0 0 0 -4.99997 4.99997 0 0. 9.
 15 1 1 2 0 0 -1.93578 -3.3303 2.23919 4.79686 1.7768 0. 1
 -15 1 1 2 0 0 1.93578 3.3303 -2.51211 4.93016 1.7768 0. -1
</event>
<event>
 4 80 1 -1 -1 -1
 11 -1 0 0 0 0 0 0 5 5 0 0. 9.
 -11 -1 0 0 0 0 0 0 -4.9956 4.9956 0 0. 9.
 15 1 1 2 0 0 0.172491 4.66663 -0.112165 4.99775 1.7768 0. 1
 -15 1 1 2 0 0 -0.172491 -4.66663 0.116569 4.99785 1.7768 0. -1
</event>
<event>
 4 80 1 -1 -1 -1
 11 -1 0 0 0 0 0 0 5 5 0 0. 9.
 -11 -1 0 0 0 0 0 0 -5 5 0 0. 9.
 15 1 1 2 0 0 0.426199 2.04956 4.17851 5 1.7768 0. -1
 -15 1 1 2 0 0 -0.426199 -2.04956 -4.17851 5 1.7768 0. 1
</event>
<event>
 4 80 1 -1 -1 -1
 11 -1 0 0 0 0 0 0 4.9993 4.9993 0 0. 9.
 -11 -1 0 0 0 0 0 0 -3.30991 3.30991 0 0. 9.
 15 1 1 2 0 0 -0.754745 3.10208 2.67083 4.52589 1.7768 0. 1
 -15 1 1 2 0 0 0.754745 -3.10208 -0.981448 3.78332 1.7768 0. -1
</event>
<event>
 4 80 1 -1 -1 -1
 11 -1 0 0 0 0 0 0 4.95859 4.95859 0 0. 9.
 -11 -1 0 0 0 0 0 0 -5 5 0 0. 9.
 15 1 1 2 0 0 0.167478 -1.02926 4.5123 4.96045 1.7768 0. -1
 -15 1 1 2 0 0 -0.167478 1.02926 -4.55371 4.99814 1.7768 0. 1
</event>
<event>
 4 80 1 -1 -1 -1
 11 -1 0 0 0 0 0 0 5 5 0 0. 9.
 -11 -1 0 0 0 0 0 0 -4.9975 4.9975 0 0. 9.
 15 1 1 2 0 0 -1.17985 -0.472836 -4.49477 4.99763 1.7768 0. -1
 -15 1 1 2 0 0 1.17985 0.472836 4.49727 4.99987 1.7768 0. 1
</event>
<event>
 4 80 1 -1 -1 -1
 11 -1 0 0 0 0 0 0 4.89803 4.89803 0 0. 9.
 -11 -1 0 0 0 0 0 0 -5 5 0 0. 9.
 15 1 1 2 0 0 -4.03933 0.812616 -2.13817 4.97052 1.7768 0. -1
 -15 1 1 2 0 0 4.03933 -0.812616 2.0362 4.92751 1.7768 0. 1
</event>
<event>
 4 80 1 -1 -1 -1
 11 -1 0 0 0 0 0 0 4.99956 4.99956 0 0. 9.
 -11 -1 0 0 0 0 0 0 -4.9991 4.9991 0 0. 9.
 15 1 1 2 0 0 2.04065 3.29196 2.61447 4.99945 1.7768 0. -1
 -15 1 1 2 0 0 -2.04065 -3.29196 -2.61402 4.99921 1.7768 0. 1
</event>
<event>
 4 80 1 -1 -1 -1
 11 -1 0 0 0 0 0 0 4.99538 4.99538 0 0. 9.
 -11 -1 0 0 0 0 0 0 -0.801933 0.801933 0 0. 9.
 15 1 1 2 0 0 0.0212741 -0.631524 1.12634 2.19673 1.7768 0. -1
 -15 1 1 2 0 0 -0.0212741 0.631524 3.06711 3.60058 1.7768 0. 1
</event>
<event>
 4 80 1 -1 -1 -1
 11 -1 0 0 0 0 0 0 5 5 0 0. 9.
 -11 -1 0 0 0 0 0 0 -4.26865 4.26865 0 0. 9.
 15 1 1 2 0 0 -0.171969 -1.7836 4.2475 4.94062 1.7768 0. -1
 -15 1 1 2 0 0 0.171969 1.7836 -3.51615 4.32803 1.7768 0. 1
</event>
<event>
 4 80 1 -1 -1 -1
 11 -1 0 0 0 0 0 0 2.4065 2.4065 0 0. 9.
 -11 -1 0 0 0 0 0 0 -5 5 0 0. 9.
 15 1 1 2 0 0 2.12305 1.74037 -2.53189 4.13575 1.7768 0. -1
 -15 1 1 2 0 0 -2.12305 -1.74037 -0.0616059 3.27075 1.7768 0. 1
</event>
<event>
 4 80 1 -1 -1 -1
 11 -1 0 0 0 0 0 0 4.99916 4.99916 0 0. 9.
 -11 -1 0 0 0 0 0 0 -5 5 0 0. 9.
 15 1 1 2 0 0 -2.50328 -2.20722 -3.27148 4.99985 1.7768 0. -1
 -15 1 1 2 0 0 2.50328 2.20722 3.27064 4.99931 1.7768 0. 1
</event>
<event>
 4 80 1 -1 -1 -1
 11 -1 0 0 0 0 0 0 2.92212 2.92212 0 0. 9.
 -11 -1 0 0 0 0 0 0 -5 5 0 0. 9.
 15 1 1 2 0 0 -1.431 1.8533 -3.57103 4.6252 1.7768 0. -1
 -15 1 1 2 0 0 1.431 -1.8533 1.49315 3.29692 1.7768 0. 1
</event>
<event>
 4 80 1 -1 -1 -1
 11 -1 0 0 0 0 0 0 5 5 0 0. 9.
 -11 -1 0 0 0 0 0 0 -4.22283 4.22283 0 0. 9.
 15 1 1 2 0 0 -0.783648 -2.6218 -2.85846 4.3378 1.7768 0. -1
 -15 1 1 2 0 0 0.783648 2.6218 3.63564 4.88503 1.7768 0. 1
</event>
<event>
 4 80 1 -1 -1 -1
 11 -1 0 0 0 0 0 0 4.98142 4.98142 0 0. 9.
 -11 -1 0 0 0 0 0 0 -4.85145 4.85145 0 0. 9.
 15 1 1 2 0 0 0.455632 -3.68184 -2.62706 4.88085 1.7768 0. 1
 -15 1 1 2 0 0 -0.455632 3.68184 2.75703 4.95202 1.7768 0. -1
</event>
<event>
 4 80 1 -1 -1 -1
 11 -1 0 0 0 0 0 0 4.96847 4.96847 0 0. 9.
 -11 -1 0 0 0 0 0 0 -5 5 0 0. 9.
 15 1 1 2 0 0 2.13886 1.08067 -4.00854 4.99686 1.7768 0. 1
 -15 1 1 2 0 0 -2.13886 -1.08067 3.977 4.9716 1.7768 0. -1
</event>
<event>
 4 80 1 -1 -1 -1
 11 -1 0 0 0 0 0 0 4.80272 4.80272 0 0. 9.
 -11 -1 0 0 0 0 0 0 -3.82106 3.82106 0 0. 9.
 15 1 1 2 0 0 0.938045 -1.33728 4.05313 4.7174 1.7768 0. -1
 -15 1 1 2 0 0 -0.938045 1.33728 -3.07147 3.90639 1.7768 0. 1
</event>
<event>
 4 80 1 -1 -1 -1
 11 -1 0 0 0 0 0 0 3.99047 3.99047 0 0. 9.
 -11 -1 0 0 0 0 0 0 -5 5 0 0. 9.
 15 1 1 2 0 0 -0.00406871 1.45102 3.35227 4.06213 1.7768 0. -1
 -15 1 1 2 0 0 0.00406871 -1.45102 -4.3618 4.92834 1.7768 0. 1
</event>
<event>
 4 80 1 -1 -1 -1
 11 -1 0 0 0 0 0 0 5 5 0 0. 9.
 -11 -1 0 0 0 0 0 0 -4.77446 4.77446 0 0. 9.
 15 1 1 2 0 0 0.641246 -2.07851 4.11173 4.9795 1.7768 0. 1
 -15 1 1 2 0 0 -0.641246 2.07851 -3.88619 4.79496 1.7768 0. -1
</event>
<event>
 4 80 1 -1 -1 -1
 11 -1 0 0 0 0 0 0 4.93693 4.93693 0 0. 9.
 -11 -1 0 0 0 0 0 0 -4.99997 4.99997 0 0. 9.
 15 1 1 2 0 0 -3.3432 -2.12025 -2.45115 4.9838 1.7768 0. 1
 -15 1 1 2 0 0 3.3432 2.12025 2.38811 4.9531 1.7768 0. -1
</event>
<event>
 4 80 1 -1 -1 -1
 11 -1 0 0 0 0 0 0 5 5 0 0. 9.
 -11 -1 0 0 0 0 0 0 -4.98292 4.98292 0 0. 9.
 15 1 1 2 0 0 -3.94622 -0.21241 -2.46919 4.98722 1.7768 0. -1
 -15 1 1 2 0 0 3.94622 0.21241 2.48627 4.9957 1.7768 0. 1
</event>
<event>
 4 80 1 -1 -1 -1
 11 -1 0 0 0 0 0 0 5 5 0 0. 9.
 -11 -1 0 0 0 0 0 0 -4.99974 4.99974 0 0. 9.
 15 1 1 2 0 0 -1.81021 -1.39089 4.07806 4.99998 1.7768 0. 1
 -15 1 1 2 0 0 1.81021 1.39089 -4.0778 4.99976 1.7768 0. -1
</event>
<event>
 4 80 1 -1 -1 -1
 11 -1 0 0 0 0 0 0 5 5 0 0. 9.
 -11 -1 0 0 0 0 0 0 -4.99679 4.99679 0 0. 9.
 15 1 1 2 0 0 0.0791234 3.58196 -2.99664 4.99743 1.7768 0. 1
 -15 1 1 2 0 0 -0.0791234 -3.58196 2.99985 4.99936 1.7768 0. -1
</event>
<event>
 4 80 1 -1 -1 -1
 11 -1 0 0 0 0 0 0 5 5 0 0. 9.
 -11 -1 0 0 0 0 0 0 -4.97386 4.97386 0 0. 9.
 15 1 1 2 0 0 -3.2194 2.97604 -1.56498 4.9828 1.7768 0. 1
 -15 1 1 2 0 0 3.2194 -2.97604 1.59112 4.99107 1.7768 0. -1
</event>
<event>
 4 80 1 -1 -1 -1
 11 -1 0 0 0 0 0 0 4.99883 4.99883 0 0. 9.
 -11 -1 0 0 0 0 0 0 -2.51407 2.51407 0 0. 9.
 15 1 1 2 0 0 1.82757 -1.18536 3.53093 4.51335 1.7768 0. 1
 -15 1 1 2 0 0 -1.82757 1.18536 -1.04617 2.99955 1.7768 0. -1
</event>
<event>
 4 80 1 -1 -1 -1
 11 -1 0 0 0 0 0 0 5 5 0 0. 9.
 -11 -1 0 0 0 0 0 0 -5 5 0 0. 9.
 15 1 1 2 0 0 -2.77718 -2.68443 2.63123 5 1.7768 0. -1
 -15 1 1 2 0 0 2.77718 2.68443 -2.63123 5 1.7768 0. 1
</event>
<event>
 4 80 1 -1 -1 -1
 11 -1 0 0 0 0 0 0 3.61186 3.61186 0 0. 9.
 -11 -1 0 0 0 0 0 0 -5 5 0 0. 9.
 15 1 1 2 0 0 2.50702 0.651838 2.20594 3.83848 1.7768 0. 1
 -15 1 1 2 0 0 -2.50702 -0.651838 -3.59408 4.77338 1.7768 0. -1
</event>
<event>
 4 80 1 -1 -1 -1
 11 -1 0 0 0 0 0 0 5 5 0 0. 9.
 -11 -1 0 0 0 0 0 0 -5 5 0 0. 9.
 15 1 1 2 0 0 -2.21351 -1.11479 3.96231 5 1.7768 0. 1
 -15 1 1 2 0 0 2.21351 1.11479 -3.96231 5 1.7768 0. -1
</event>
<event>
 4 80 1 -1 -1 -1
 11 -1 0 0 0 0 0 0 5 5 0 0. 9.
 -11 -1 0 0 0 0 0 0 -5 5 0 0. 9.
 15 1 1 2 0 0 -0.0889389 0.0708308 4.67219 5 1.7768 0. -1
 -15 1 1 2 0 0 0.0889389 -0.0708308 -4.67219 5 1.7768 0. 1
</event>
<event>
 4 80 1 -1 -1 -1
 11 -1 0 0 0 0 0 0 5 5 0 0. 9.
 -11 -1 0 0 0 0 0 0 -3.66306 3.66306 0 0. 9.
 15 1 1 2 0 0 -1.552 0.25373 4.27318 4.88783 1.7768 0. 1
 -15 1 1 2 0 0 1.552 -0.25373 -2.93625 3.77523 1.7768 0. -1
</event>
<event>
 4 80 1 -1 -1 -1
 11 -1 0 0 0 0 0 0 5 5 0 0. 9.
 -11 -1 0 0 0 0 0 0 -1.23538 1.23538 0 0. 9.
 15 1 1 2 0 0 -1.1312 0.77381 0.542488 2.30877 1.7768 0. 1
 -15 1 1 2 0 0 1.1312 -0.77381 3.22213 3.92661 1.7768 0. -1
</event>
<event>
 4 80 1 -1 -1 -1
 11 -1 0 0 0 0 0 0 4.11662 4.11662 0 0. 9.
 -11 -1 0 0 0 0 0 0 -4.82289 4.82289 0 0. 9.
 15 1 1 2 0 0 1.45787 -0.342314 -4.16686 4.77106 1.7768 0. -1
 -15 1 1 2 0 0 -1.45787 0.342314 3.46059 4.16845 1.7768 0. 1
</event>
<event>
 4 80 1 -1 -1 -1
 11 -1 0 0 0 0 0 0 5 5 0 0. 9.
 -11 -1 0 0 0 0 0 0 -5 5 0 0. 9.
 15 1 1 2 0 0 -1.48253 -4.43062 0.118102 5 1.7768 0. 1
 -15 1 1 2 0 0 1.48253 4.43062 -0.118102 5 1.7768 0. -1
</event>
<event>
 4 80 1 -1 -1 -1
 11 -1 0 0 0 0 0 0 4.42323 4.42323 0 0. 9.
 -11 -1 0 0 0 0 0 0 -4.99989 4.99989 0 0. 9.
 15 1 1 2 0 0 3.48508 2.15217 1.19102 4.62103 1.7768 0. 1
 -15 1 1 2 0 0 -3.48508 -2.15217 -1.76769 4.80209 1.7768 0. -1
</event>
<event>
 4 80 1 -1 -1 -1
 11 -1 0 0 0 0 0 0 5 5 0 0. 9.
 -11 -1 0 0 0 0 0 0 -4.85133 4.85133 0 0. 9.
 15 1 1 2 0 0 3.68577 -1.87399 -1.92643 4.89547 1.7768 0. -1
 -15 1 1 2 0 0 -3.68577 1.87399 2.0751 4.95586 1.7768 0. 1
</event>
<event>
 4 80 1 -1 -1 -1
 11 -1 0 0 0 0 0 0 5 5 0 0. 9.
 -11 -1 0 0 0 0 0 0 -4.99953 4.99953 0 0. 9.
 15 1 1 2 0 0 1.29712 -2.11095 -3.96226 4.99958 1.7768 0. 1
 -15 1 1 2 0 0 -1.29712 2.11095 3.96272 4.99995 1.7768 0. -1
</event>
<event>
 4 80 1 -1 -1 -1
 11 -1 0 0 0 0 0 0 4.8609 4.8609 0 0. 9.
 -11 -1 0 0 0 0 0 0 -5 5 0 0. 9.
 15 1 1 2 0 0 1.698 1.81822 3.79834 4.87588 1.7768 0. 1
 -15 1 1 2 0 0 -1.698 -1.81822 -3.93745 4.98501 1.7768 0. -1
</event>
<event>
 4 80 1 -1 -1 -1
 11 -1 0 0 0 0 0 0 4.9999 4.9999 0 0. 9.
 -11 -1 0 0 0 0 0 0 -5 5 0 0. 9.
 15 1 1 2 0 0 -2.7598 3.22232 -1.96014 4.99997 1.7768 0. 1
 -15 1 1 2 0 0 2.7598 -3.22232 1.96003 4.99993 1.7768 0. -1
</event>
<event>
 4 80 1 -1 -1 -1
 11 -1 0 0 0 0 0 0 4.99556 4.99556 0 0. 9.
 -11 -1 0 0 0 0 0 0 -4.99966 4.99966 0 0. 9.
 15 1 1 2 0 0 -0.795671 -2.54299 3.83442 4.99604 1.7768 0. -1
 -15 1 1 2 0 0 0.795671 2.54299 -3.83852 4.99919 1.7768 0. 1
</event>
<event>
 4 80 1 -1 -1 -1
 11 -1 0 0 0 0 0 0 5 5 0 0. 9.
 -11 -1 0 0 0 0 0 0 -4.99988 4.99988 0 0. 9.
 15 1 1 2 0 0 0.00418937 4.24618 1.9524 4.99996 1.7768 0. 1
 -15 1 1 2 0 0 -0.00418937 -4.24618 -1.95228 4.99991 1.7768 0. -1
</event>
<event>
 4 80 1 -1 -1 -1
 11 -1 0 0 0 0 0 0 5 5 0 0. 9.
 -11 -1 0 0 0 0 0 0 -5 5 0 0. 9.
 15 1 1 2 0 0 0.970262 4.23076 1.7325 5 1.7768 0. 1
 -15 1 1 2 0 0 -0.970262 -4.23076 -1.7325 5 1.7768 0. -1
</event>
<event>
 4 80 1 -1 -1 -1
 11 -1 0 0 0 0 0 0 4.99668 4.99668 0 0. 9.
 -11 -1 0 0 0 0 0 0 -4.92551 4.92551 0 0. 9.
 15 1 1 2 0 0 -2.38573 3.13606 -2.399 4.94363 1.7768 0. 1
 -15 1 1 2 0 0 2.38573 -3.13606 2.47017 4.97856 1.7768 0. -1
</event>
<event>
 4 80 1 -1 -1 -1
 11 -1 0 0 0 0 0 0 5 5 0 0. 9.
 -11 -1 0 0 0 0 0 0 -4.93817 4.93817 0 0. 9.
 15 1 1 2 0 0 -0.231209 0.290388 4.65651 4.99786 1.7768 0. 1
 -15 1 1 2 0 0 0.231209 -0.290388 -4.59468 4.94031 1.7768 0. -1
</event>
<event>
 4 80 1 -1 -1 -1
 11 -1 0 0 0 0 0 0 5 5 0 0. 9.
 -11 -1 0 0 0 0 0 0 -5 5 0 0. 9.
 15 1 1 2 0 0 2.07156 3.03533 2.8875 5 1.7768 0. 1
 -15 1 1 2 0 0 -2.07156 -3.03533 -2.8875 5 1.7768 0. -1
</event>
<event>
 4 80 1 -1 -1 -1
 11 -1 0 0 0 0 0 0 5 5 0 0. 9.
 -11 -1 0 0 0 0 0 0 -5 5 0 0. 9.
 15 1 1 2 0 0 -1.05757 1.84237 -4.16287 5 1.7768 0. 1
 -15 1 1 2 0 0 1.05757 -1.84237 4.16287 5 1.7768 0. -1
</event>
<event>
 4 80 1 -1 -1 -1
 11 -1 0 0 0 0 0 0 5 5 0 0. 9.
 -11 -1 0 0 0 0 0 0 -5 5 0 0. 9.
 15 1 1 2 0 0 2.58073 2.48182 -3.00377 5 1.7768 0. 1
 -15 1 1 2 0 0 -2.58073 -2.48182 3.00377 5 1.7768 0. -1
</event>
<event>
 4 80 1 -1 -1 -1
 11 -1 0 0 0 0 0 0 5 5 0 0. 9.
 -11 -1 0 0 0 0 0 0 -1.38485 1.38485 0 0. 9.
 15 1 1 2 0 0 -1.20535 1.38748 1.05131 2.76423 1.7768 0. 1
 -15 1 1 2 0 0 1.20535 -1.38748 2.56383 3.62063 1.7768 0. -1
</event>
<event>
 4 80 1 -1 -1 -1
 11 -1 0 0 0 0 0 0 5 5 0 0. 9.
 -11 -1 0 0 0 0 0 0 -4.63873 4.63873 0 0. 9.
 15 1 1 2 0 0 -1.66382 -3.56913 -1.949 4.73954 1.7768 0. 1
 -15 1 1 2 0 0 1.66382 3.56913 2.31027 4.89918 1.7768 0. -1
</event>
<event>
 4 80 1 -1 -1 -1
 11 -1 0 0 0 0 0 0 5 5 0 0. 9.
 -11 -1 0 0 0 0 0 0 -4.92699 4.92699 0 0. 9.
 15 1 1 2 0 0 -2.90446 -3.08609 -1.83901 4.9497 1.7768 0. -1
 -15 1 1 2 0 0 2.90446 3.08609 1.91202 4.97729 1.7768 0. 1
</event>
<event>
 4 80 1 -1 -1 -1
 11 -1 0 0 0 0 0 0 5 5 0 0. 9.
 -11 -1 0 0 0 0 0 0 -4.99922 4.99922 0 0. 9.
 15 1 1 2 0 0 4.22622 -1.44437 -1.37484 4.9995 1.7768 0. -1
 -15 1 1 2 0 0 -4.22622 1.44437 1.37562 4.99972 1.7768 0. 1
</event>
<event>
 4 80 1 -1 -1 -1
 11 -1 0 0 0 0 0 0 3.64462 3.64462 0 0. 9.
 -11 -1 0 0 0 0 0 0 -5 5 0 0. 9.
 15 1 1 2 0 0 3.56316 -0.527945 -2.14168 4.55185 1.7768 0. -1
 -15 1 1 2 0 0 -3.56316 0.527945 0.786296 4.09277 1.7768 0. 1
</event>
<event>
 4 80 1 -1 -1 -1
 11 -1 0 0 0 0 0 0 4.99977 4.99977 0 0. 9.
 -11 -1 0 0 0 0 0 0 -5 5 0 0. 9.
 15 1 1 2 0 0 0.389738 1.86319 -4.26834 4.99998 1.7768 0. -1
 -15 1 1 2 0 0 -0.389738 -1.86319 4.26811 4.99979 1.7768 0. 1
</event>
<event>
 4 80 1 -1 -1 -1
 11 -1 0 0 0 0 0 0 5 5 0 0. 9.
 -11 -1 0 0 0 0 0 0 -5 5 0 0. 9.
 15 1 1 2 0 0 -3.33219 1.51778 2.90433 5 1.7768 0. -1
 -15 1 1 2 0 0 3.33219 -1.51778 -2.90433 5 1.7768 0. 1
</event>
<event>
 4 80 1 -1 -1 -1
 11 -1 0 0 0 0 0 0 1.77386 1.77386 0 0. 9.
 -11 -1 0 0 0 0 0 0 -5 5 0 0. 9.
 15 1 1 2 0 0 -1.28781 -2.0081 -1.77651 3.46477 1.7768 0. 1
 -15 1 1 2 0 0 1.28781 2.0081 -1.44964 3.30909 1.7768 0. -1
</event>
<event>
 4 80 1 -1 -1 -1
 11 -1 0 0 0 0 0 0 5 5 0 0. 9.
 -11 -1 0 0 0 0 0 0 -5 5 0 0. 9.
 15 1 1 2 0 0 0.043701 1.49127 4.42905 5 1.7768 0. -1
 -15 1 1 2 0 0 -0.043701 -1.49127 -4.42905 5 1.7768 0. 1
</event>
<event>
 4 80 1 -1 -1 -1
 11 -1 0 0 0 0 0 0 5 5 0 0. 9.
 -11 -1 0 0 0 0 0 0 -4.98395 4.98395 0 0. 9.
 15 1 1 2 0 0 2.40156 3.6707 -1.57959 4.98943 1.7768 0. -1
 -15 1 1 2 0 0 -2.40156 -3.6707 1.59563 4.99453 1.7768 0. 1
</event>
<event>
 4 80 1 -1 -1 -1
 11 -1 0 0 0 0 0 0 4.86102 4.86102 0 0. 9.
 -11 -1 0 0 0 0 0 0 -4.99866 4.99866 0 0. 9.
 15 1 1 2 0 0 2.39398 -0.083233 -3.99384 4.98463 1.7768 0. 1
 -15 1 1 2 0 0 -2.39398 0.083233 3.8562 4.87505 1.7768 0. -1
</event>
<event>
 4 80 1 -1 -1 -1
 11 -1 0 0 0 0 0 0 5 5 0 0. 9.
 -11 -1 0 0 0 0 0 0 -5 5 0 0. 9.
 15 1 1 2 0 0 0.952248 -4.57455 0.0947398 5 1.7768 0. 1
 -15 1 1 2 0 0 -0.952248 4.57455 -0.0947397 5 1.7768 0. -1
</event>
<event>
 4 80 1 -1 -1 -1
 11 -1 0 0 0 0 0 0 5 5 0 0. 9.
 -11 -1 0 0 0 0 0 0 -4.99997 4.99997 0 0. 9.
 15 1 1 2 0 0 -4.32299 -0.543431 -1.69072 4.99998 1.7768 0. 1
 -15 1 1 2 0 0 4.32299 0.543431 1.69075 4.99999 1.7768 0. -1
</event>
<event>
 4 80 1 -1 -1 -1
 11 -1 0 0 0 0 0 0 4.10365 4.10365 0 0. 9.
 -11 -1 0 0 0 0 0 0 -4.98352 4.98352 0 0. 9.
 15 1 1 2 0 0 -3.1283 -0.690926 -3.10373 4.80151 1.7768 0. -1
 -15 1 1 2 0 0 3.1283 0.690926 2.22386 4.28567 1.7768 0. 1
</event>
<event>
 4 80 1 -1 -1 -1
 11 -1 0 0 0 0 0 0 5 5 0 0. 9.
 -11 -1 0 0 0 0 0 0 -5 5 0 0. 9.
 15 1 1 2 0 0 3.58375 -2.99141 -0.224731 5 1.7768 0. 1
 -15 1 1 2 0 0 -3.58375 2.99141 0.224732 5 1.7768 0. -1
</event>
<event>
 4 80 1 -1 -1 -1
 11 -1 0 0 0 0 0 0 5 5 0 0. 9.
 -11 -1 0 0 0 0 0 0 -4.99999 4.99999 0 0. 9.
 15 1 1 2 0 0 3.83811 -1.77067 -1.99394 4.99999 1.7768 0. 1
 -15 1 1 2 0 0 -3.83811 1.77067 1.99395 5 1.7768 0. -1
</event>
<event>
 4 80 1 -1 -1 -1
 11 -1 0 0 0 0 0 0 4.99995 4.99995 0 0. 9.
 -11 -1 0 0 0 0 0 0 -4.99962 4.99962 0 0. 9.
 15 1 1 2 0 0 0.681292 -3.03536 3.48766 4.9999 1.7768 0. 1
 -15 1 1 2 0 0 -0.681292 3.03536 -3.48733 4.99967 1.7768 0. -1
</event>
<event>
 4 80 1 -1 -1 -1
 11 -1 0 0 0 0 0 0 4.93268 4.93268 0 0. 9.
 -11 -1 0 0 0 0 0 0 -4.69866 4.69866 0 0. 9.
 15 1 1 2 0 0 -3.99194 0.557374 -1.82598 4.76846 1.7768 0. 1
 -15 1 1 2 0 0 3.99194 -0.557374 2.06 4.86288 1.7768 0. -1
</event>
<event>
 4 80 1 -1 -1 -1
 11 -1 0 0 0 0 0 0 5 5 0 0. 9.
 -11 -1 0 0 0 0 0 0 -5 5 0 0. 9.
 15 1 1 2 0 0 1.52264 3.54589 2.63638 5 1.7768 0. 1
 -15 1 1 2 0 0 -1.52264 -3.54589 -2.63638 5 1.7768 0. -1
</event>
<event>
 4 80 1 -1 -1 -1
 11 -1 0 0 0 0 0 0 5 5 0 0. 9.
 -11 -1 0 0 0 0 0 0 -4.99958 4.99958 0 0. 9.
 15 1 1 2 0 0 -1.28372 2.2546 -3.88682 4.99963 1.7768 0. 1
 -15 1 1 2 0 0 1.28372 -2.2546 3.88724 4.99995 1.7768 0. -1
</event>
<event>
 4 80 1 -1 -1 -1
 11 -1 0 0 0 0 0 0 5 5 0 0. 9.
 -11 -1 0 0 0 0 0 0 -4.74377 4.74377 0 0. 9.
 15 1 1 2 0 0 1.51787 -3.14671 3.01968 4.94792 1.7768 0. 1
 -15 1 1 2 0 0 -1.51787 3.14671 -2.76345 4.79584 1.7768 0. -1
</event>
<event>
 4 80 1 -1 -1 -1
 11 -1 0 0 0 0 0 0 5 5 0 0. 9.
 -11 -1 0 0 0 0 0 0 -5 5 0 0. 9.
 15 1 1 2 0 0 4.04145 1.52937 1.78044 5 1.7768 0. -1
 -15 1 1 2 0 0 -4.04145 -1.52937 -1.78044 5 1.7768 0. 1
</event>
<event>
 4 80 1 -1 -1 -1
 11 -1 0 0 0 0 0 0 4.99797 4.99797 0 0. 9.
 -11 -1 0 0 0 0 0 0 -0.82979 0.82979 0 0. 9.
 15 1 1 2 0 0 -0.000257953 0.271123 0.714643 1.93441 1.7768 0. 1
 -15 1 1 2 0 0 0.000257953 -0.271123 3.45354 3.89335 1.7768 0. -1
</event>
<event>
 4 80 1 -1 -1 -1
 11 -1 0 0 0 0 0 0 5 5 0 0. 9.
 -11 -1 0 0 0 0 0 0 -4.99999 4.99999 0 0. 9.
 15 1 1 2 0 0 -1.12835 3.84743 -2.40131 4.99999 1.7768 0. 1
 -15 1 1 2 0 0 1.12835 -3.84743 2.40133 5 1.7768 0. -1
</event>
<event>
 4 80 1 -1 -1 -1
 11 -1 0 0 0 0 0 0 2.15106 2.15106 0 0. 9.
 -11 -1 0 0 0 0 0 0 -5 5 0 0. 9.
 15 1 1 2 0 0 -2.55231 1.01186 -1.69022 3.6814 1.7768 0. -1
 -15 1 1 2 0 0 2.55231 -1.01186 -1.15872 3.46966 1.7768 0. 1
</event>
<event>
 4 80 1 -1 -1 -1
 11 -1 0 0 0 0 0 0 2.94516 2.94516 0 0. 9.
 -11 -1 0 0 0 0 0 0 -5 5 0 0. 9.
 15 1 1 2 0 0 2.1061 2.52403 -0.123922 3.73891 1.7768 0. 1
 -15 1 1 2 0 0 -2.1061 -2.52403 -1.93091 4.20625 1.7768 0. -1
</event>
<event>
 4 80 1 -1 -1 -1
 11 -1 0 0 0 0 0 0 4.99431 4.99431 0 0. 9.
 -11 -1 0 0 0 0 0 0 -5 5 0 0. 9.
 15 1 1 2 0 0 -0.518599 -4.47633 -1.23058 4.99785 1.7768 0. -1
 -15 1 1 2 0 0 0.518599 4.47633 1.22488 4.99645 1.7768 0. 1
</event>
<event>
 4 80 1 -1 -1 -1
 11 -1 0 0 0 0 0 0 4.9992 4.9992 0 0. 9.
 -11 -1 0 0 0 0 0 0 -5 5 0 0. 9.
 15 1 1 2 0 0 -3.32433 -2.98975 1.35917 4.99949 1.7768 0. -1
 -15 1 1 2 0 0 3.32433 2.98975 -1.35998 4.99971 1.7768 0. 1
</event>
<event>
 4 80 1 -1 -1 -1
 11 -1 0 0 0 0 0 0 5 5 0 0. 9.
 -11 -1 0 0 0 0 0 0 -4.99999 4.99999 0 0. 9.
 15 1 1 2 0 0 1.77276 -3.94434 1.77249 5 1.7768 0. 1
 -15 1 1 2 0 0 -1.77276 3.94434 -1.77248 4.99999 1.7768 0. -1
</event>
<event>
 4 80 1 -1 -1 -1
 11 -1 0 0 0 0 0 0 4.71382 4.71382 0 0. 9.
 -11 -1 0 0 0 0 0 0 -4.99961 4.99961 0 0. 9.
 15 1 1 2 0 0 0.0904386 -3.12348 3.12123 4.76068 1.7768 0. 1
 -15 1 1 2 0 0 -0.0904386 3.12348 -3.40702 4.95276 1.7768 0. -1
</event>
<event>
 4 80 1 -1 -1 -1
 11 -1 0 0 0 0 0 0 5 5 0 0. 9.
 -11 -1 0 0 0 0 0 0 -5 5 0 0. 9.
 15 1 1 2 0 0 -4.33419 -1.22765 -1.24496 5 1.7768 0. 1
 -15 1 1 2 0 0 4.33419 1.22765 1.24496 5 1.7768 0. -1
</event>
<event>
 4 80 1 -1 -1 -1
 11 -1 0 0 0 0 0 0 5 5 0 0. 9.
 -11 -1 0 0 0 0 0 0 -5 5 0 0. 9.
 15 1 1 2 0 0 -1.81859 -1.28098 -4.11024 5 1.7768 0. 1
 -15 1 1 2 0 0 1.81859 1.28098 4.11024 5 1.7768 0. -1
</event>
<event>
 4 80 1 -1 -1 -1
 11 -1 0 0 0 0 0 0 5 5 0 0. 9.
 -11 -1 0 0 0 0 0 0 -4.99991 4.99991 0 0. 9.
 15 1 1 2 0 0 -1.66654 2.43625 3.62346 4.99999 1.7768 0. 1
 -15 1 1 2 0 0 1.66654 -2.43625 -3.62337 4.99992 1.7768 0. -1
</event>
<event>
 4 80 1 -1 -1 -1
 11 -1 0 0 0 0 0 0 4.99995 4.99995 0 0. 9.
 -11 -1 0 0 0 0 0 0 -4.9998 4.9998 0 0. 9.
 15 1 1 2 0 0 4.43562 -0.629118 -1.33051 4.99985 1.7768 0. -1
 -15 1 1 2 0 0 -4.43562 0.629118 1.33066 4.99989 1.7768 0. 1
</event>
<event>
 4 80 1 -1 -1 -1
 11 -1 0 0 0 0 0 0 5 5 0 0. 9.
 -11 -1 0 0 0 0 0 0 -0.762705 0.762705 0 0. 9.
 15 1 1 2 0 0 -0.586235 -0.0169049 1.2947 2.27551 1.7768 0. 1
 -15 1 1 2 0 0 0.586235 0.0169049 2.94259 3.4872 1.7768 0. -1
</event>
<event>
 4 80 1 -1 -1 -1
 11 -1 0 0 0 0 0 0 4.99968 4.99968 0 0. 9.
 -11 -1 0 0 0 0 0 0 -5 5 0 0. 9.
 15 1 1 2 0 0 -0.902134 2.24122 -4.00063 4.99997 1.7768 0. -1
 -15 1 1 2 0 0 0.902134 -2.24122 4.00031 4.99971 1.7768 0. 1
</event>
<event>
 4 80 1 -1 -1 -1
 11 -1 0 0 0 0 0 0 5 5 0 0. 9.
 -11 -1 0 0 0 0 0 0 -4.98577 4.98577 0 0. 9.
 15 1 1 2 0 0 -0.761511 4.44726 1.19584 4.99458 1.7768 0. -1
 -15 1 1 2 0 0 0.761511 -4.44726 -1.18161 4.99119 1.7768 0. 1
</event>
<event>
 4 80 1 -1 -1 -1
 11 -1 0 0 0 0 0 0 5 5 0 0. 9.
 -11 -1 0 0 0 0 0 0 -2.16681 2.16681 0 0. 9.
 15 1 1 2 0 0 0.483183 -1.59768 -0.990909 2.63167 1.7768 0. -1
 -15 1 1 2 0 0 -0.483183 1.59768 3.8241 4.53514 1.7768 0. 1
</event>
<event>
 4 80 1 -1 -1 -1
 11 -1 0 0 0 0 0 0 3.4931 3.4931 0 0. 9.
 -11 -1 0 0 0 0 0 0 -4.87296 4.87296 0 0. 9.
 15 1 1 2 0 0 1.18634 -3.52417 -0.495244 4.15092 1.7768 0. 1
 -15 1 1 2 0 0 -1.18634 3.52417 -0.884617 4.21514 1.7768 0. -1
</event>
<event>
 4 80 1 -1 -1 -1
 11 -1 0 0 0 0 0 0 5 5 0 0. 9.
 -11 -1 0 0 0 0 0 0 -5 5 0 0. 9.
 15 1 1 2 0 0 0.963405 -4.19241 1.82698 5 1.7768 0. -1
 -15 1 1 2 0 0 -0.963405 4.19241 -1.82698 5 1.7768 0. 1
</event>
<event>
 4 80 1 -1 -1 -1
 11 -1 0 0 0 0 0 0 5 5 0 0. 9.
 -11 -1 0 0 0 0 0 0 -5 5 0 0. 9.
 15 1 1 2 0 0 0.0257759 -3.5864 2.99655 5 1.7768 0. 1
 -15 1 1 2 0 0 -0.0257759 3.5864 -2.99655 5 1.7768 0. -1
</event>
<event>
 4 80 1 -1 -1 -1
 11 -1 0 0 0 0 0 0 5 5 0 0. 9.
 -11 -1 0 0 0 0 0 0 -5 5 0 0. 9.
 15 1 1 2 0 0 2.58047 -1.69588 -3.50819 5 1.7768 0. -1
 -15 1 1 2 0 0 -2.58047 1.69588 3.50819 5 1.7768 0. 1
</event>
<event>
 4 80 1 -1 -1 -1
 11 -1 0 0 0 0 0 0 5 5 0 0. 9.
 -11 -1 0 0 0 0 0 0 -4.99707 4.99707 0 0. 9.
 15 1 1 2 0 0 -4.47836 -1.15402 -0.661962 4.99834 1.7768 0. 1
 -15 1 1 2 0 0 4.47836 1.15402 0.664891 4.99873 1.7768 0. -1
</event>
<event>
 4 80 1 -1 -1 -1
 11 -1 0 0 0 0 0 0 4.97513 4.97513 0 0. 9.
 -11 -1 0 0 0 0 0 0 -5 5 0 0. 9.
 15 1 1 2 0 0 2.63321 2.86433 -2.57754 4.99396 1.7768 0. -1
 -15 1 1 2 0 0 -2.63321 -2.86433 2.55267 4.98117 1.7768 0. 1
</event>
<event>
 4 80 1 -1 -1 -1
 11 -1 0 0 0 0 0 0 5 5 0 0. 9.
 -11 -1 0 0 0 0 0 0 -4.99862 4.99862 0 0. 9.
 15 1 1 2 0 0 -1.74726 2.73601 3.36175 4.99977 1.7768 0. 1
 -15 1 1 2 0 0 1.74726 -2.73601 -3.36036 4.99884 1.7768 0. -1
</event>
<event>
 4 80 1 -1 -1 -1
 11 -1 0 0 0 0 0 0 1.21282 1.21282 0 0. 9.
 -11 -1 0 0 0 0 0 0 -4.88849 4.88849 0 0. 9.
 15 1 1 2 0 0 -0.173143 0.058927 0.23516 1.8018 1.7768 0. 1
 -15 1 1 2 0 0 0.173143 -0.058927 -3.91083 4.29951 1.7768 0. -1
</event>
<event>
 4 80 1 -1 -1 -1
 11 -1 0 0 0 0 0 0 0.918385 0.918385 0 0. 9.
 -11 -1 0 0 0 0 0 0 -5 5 0 0. 9.
 15 1 1 2 0 0 -1.09685 0.20793 -1.44222 2.54638 1.7768 0. -1
 -15 1 1 2 0 0 1.09685 -0.20793 -2.63939 3.37201 1.7768 0. 1
</event>
<event>
 4 80 1 -1 -1 -1
 11 -1 0 0 0 0 0 0 5 5 0 0. 9.
 -11 -1 0 0 0 0 0 0 -4.99817 4.99817 0 0. 9.
 15 1 1 2 0 0 3.76939 -1.03193 -2.56032 4.99862 1.7768 0. 1
 -15 1 1 2 0 0 -3.76939 1.03193 2.56215 4.99955 1.7768 0. -1
</event>
<event>
 4 80 1 -1 -1 -1
 11 -1 0 0 0 0 0 0 5 5 0 0. 9.
 -11 -1 0 0 0 0 0 0 -5 5 0 0. 9.
 15 1 1 2 0 0 1.49139 -3.66193 2.49164 5 1.7768 0. -1
 -15 1 1 2 0 0 -1.49139 3.66193 -2.49164 5 1.7768 0. 1
</event>
<event>
 4 80 1 -1 -1 -1
 11 -1 0 0 0 0 0 0 5 5 0 0. 9.
 -11 -1 0 0 0 0 0 0 -5 5 0 0. 9.
 15 1 1 2 0 0 -0.369356 4.60864 0.682823 5 1.7768 0. -1
 -15 1 1 2 0 0 0.369356 -4.60864 -0.682823 5 1.7768 0. 1
</event>
<event>
 4 80 1 -1 -1 -1
 11 -1 0 0 0 0 0 0 4.99999 4.99999 0 0. 9.
 -11 -1 0 0 0 0 0 0 -5 5 0 0. 9.
 15 1 1 2 0 0 3.6132 -0.199223 -2.95759 5 1.7768 0. -1
 -15 1 1 2 0 0 -3.6132 0.199223 2.95758 4.99999 1.7768 0. 1
</event>
<event>
 4 80 1 -1 -1 -1
 11 -1 0 0 0 0 0 0 5 5 0 0. 9.
 -11 -1 0 0 0 0 0 0 -4.99713 4.99713 0 0. 9.
 15 1 1 2 0 0 -0.706444 -4.45866 -1.20241 4.99822 1.7768 0. 1
 -15 1 1 2 0 0 0.706444 4.45866 1.20528 4.99891 1.7768 0. -1
</event>
<event>
 4 80 1 -1 -1 -1
 11 -1 0 0 0 0 0 0 5 5 0 0. 9.
 -11 -1 0 0 0 0 0 0 -5 5 0 0. 9.
 15 1 1 2 0 0 -1.28442 2.98877 3.35556 5 1.7768 0. -1
 -15 1 1 2 0 0 1.28442 -2.98877 -3.35556 5 1.7768 0. 1
</event>
<event>
 4 80 1 -1 -1 -1
 11 -1 0 0 0 0 0 0 5 5 0 0. 9.
 -11 -1 0 0 0 0 0 0 -4.9972 4.9972 0 0. 9.
 15 1 1 2 0 0 -0.424116 2.36036 -4.00823 4.99748 1.7768 0. -1
 -15 1 1 2 0 0 0.424116 -2.36036 4.01103 4.99972 1.7768 0. 1
</event>
<event>
 4 80 1 -1 -1 -1
 11 -1 0 0 0 0 0 0 5 5 0 0. 9.
 -11 -1 0 0 0 0 0 0 -5 5 0 0. 9.
 15 1 1 2 0 0 2.87631 3.43824 -1.32197 5 1.7768 0. 1
 -15 1 1 2 0 0 -2.87631 -3.43824 1.32197 5 1.7768 0. -1
</event>
<event>
 4 80 1 -1 -1 -1
 11 -1 0 0 0 0 0 0 5 5 0 0. 9.
 -11 -1 0 0 0 0 0 0 -5 5 0 0. 9.
 15 1 1 2 0 0 -1.68692 -0.142753 4.35617 5 1.7768 0. 1
 -15 1 1 2 0 0 1.68692 0.142753 -4.35617 5 1.7768 0. -1
</event>
<event>
 4 80 1 -1 -1 -1
 11 -1 0 0 0 0 0 0 5 5 0 0. 9.
 -11 -1 0 0 0 0 0 0 -5 5 0 0. 9.
 15 1 1 2 0 0 -0.156644 2.40446 4.00454 5 1.7768 0. 1
 -15 1 1 2 0 0 0.156644 -2.40446 -4.00454 5 1.7768 0. -1
</event>
<event>
 4 80 1 -1 -1 -1
 11 -1 0 0 0 0 0 0 5 5 0 0. 9.
 -11 -1 0 0 0 0 0 0 -4.99998 4.99998 0 0. 9.
 15 1 1 2 0 0 4.02929 1.58437 -1.75976 4.99999 1.7768 0. -1
 -15 1 1 2 0 0 -4.02929 -1.58437 1.75977 4.99999 1.7768 0. 1
</event>
<event>
 4 80 1 -1 -1 -1
 11 -1 0 0 0 0 0 0 5 5 0 0. 9.
 -11 -1 0 0 0 0 0 0 -5 5 0 0. 9.
 15 1 1 2 0 0 0.505765 -4.37932 -1.55178 5 1.7768 0. 1
 -15 1 1 2 0 0 -0.505765 4.37932 1.55178 5 1.7768 0. -1
</event>
<event>
 4 80 1 -1 -1 -1
 11 -1 0 0 0 0 0 0 5 5 0 0. 9.
 -11 -1 0 0 0 0 0 0 -5 5 0 0. 9.
 15 1 1 2 0 0 -2.4619 3.62731 1.61985 5 1.7768 0. 1
 -15 1 1 2 0 0 2.4619 -3.62731 -1.61985 5 1.7768 0. -1
</event>
<event>
 4 80 1 -1 -1 -1
 11 -1 0 0 0 0 0 0 5 5 0 0. 9.
 -11 -1 0 0 0 0 0 0 -4.62705 4.62705 0 0. 9.
 15 1 1 2 0 0 -0.240408 4.45215 -0.126927 4.80138 1.7768 0. 1
 -15 1 1 2 0 0 0.240408 -4.45215 0.499876 4.82567 1.7768 0. -1
</event>
<event>
 4 80 1 -1 -1 -1
 11 -1 0 0 0 0 0 0 4.99973 4.99973 0 0. 9.
 -11 -1 0 0 0 0 0 0 -4.87368 4.87368 0 0. 9.
 15 1 1 2 0 0 0.601332 -2.04855 -4.01789 4.8846 1.7768 0. 1
 -15 1 1 2 0 0 -0.601332 2.04855 4.14394 4.9888 1.7768 0. -1
</event>
<event>
 4 80 1 -1 -1 -1
 11 -1 0 0 0 0 0 0 4.99811 4.99811 0 0. 9.
 -11 -1 0 0 0 0 0 0 -5 5 0 0. 9.
 15 1 1 2 0 0 4.6117 0.598713 -0.455505 4.99914 1.7768 0. -1
 -15 1 1 2 0 0 -4.6117 -0.598713 0.453616 4.99897 1.7768 0. 1
</event>
<event>
 4 80 1 -1 -1 -1
 11 -1 0 0 0 0 0 0 4.5613 4.5613 0 0. 9.
 -11 -1 0 0 0 0 0 0 -1.75743 1.75743 0 0. 9.
 15 1 1 2 0 0 -0.73034 2.04143 1.84494 3.35594 1.7768 0. 1
 -15 1 1 2 0 0 0.73034 -2.04143 0.958932 2.96279 1.7768 0. -1
</event>
<event>
 4 80 1 -1 -1 -1
 11 -1 0 0 0 0 0 0 4.99997 4.99997 0 0. 9.
 -11 -1 0 0 0 0 0 0 -5 5 0 0. 9.
 15 1 1 2 0 0 0.0108577 -4.4688 -1.36816 4.99999 1.7768 0. -1
 -15 1 1 2 0 0 -0.0108577 4.4688 1.36813 4.99998 1.7768 0. 1
</event>
<event>
 4 80 1 -1 -1 -1
 11 -1 0 0 0 0 0 0 4.98654 4.98654 0 0. 9.
 -11 -1 0 0 0 0 0 0 -4.99324 4.99324 0 0. 9.
 15 1 1 2 0 0 2.02904 -2.47342 3.38877 4.98762 1.7768 0. 1
 -15 1 1 2 0 0 -2.02904 2.47342 -3.39547 4.99217 1.7768 0. -1
</event>
<event>
 4 80 1 -1 -1 -1
 11 -1 0 0 0 0 0 0 5 5 0 0. 9.
 -11 -1 0 0 0 0 0 0 -4.97834 4.97834 0 0. 9.
 15 1 1 2 0 0 0.903495 0.625085 4.54151 4.999 1.7768 0. -1
 -15 1 1 2 0 0 -0.903495 -0.625085 -4.51985 4.97934 1.7768 0. 1
</event>
<event>
 4 80 1 -1 -1 -1
 11 -1 0 0 0 0 0 0 5 5 0 0. 9.
 -11 -1 0 0 0 0 0 0 -5 5 0 0. 9.
 15 1 1 2 0 0 -4.66769 -0.232658 0.0290672 5 1.7768 0. -1
 -15 1 1 2 0 0 4.66769 0.232658 -0.0290679 5 1.7768 0. 1
</event>
<event>
 4 80 1 -1 -1 -1
 11 -1 0 0 0 0 0 0 5 5 0 0. 9.
 -11 -1 0 0 0 0 0 0 -0.652516 0.652516 0 0. 9.
 15 1 1 2 0 0 0.221723 -0.189006 1.95264 2.65621 1.7768 0. 1
 -15 1 1 2 0 0 -0.221723 0.189006 2.39484 2.99631 1.7768 0. -1
</event>
<event>
 4 80 1 -1 -1 -1
 11 -1 0 0 0 0 0 0 4.80303 4.80303 0 0. 9.
 -11 -1 0 0 0 0 0 0 -4.99997 4.99997 0 0. 9.
 15 1 1 2 0 0 2.1113 1.02343 -4.01746 4.98023 1.7768 0. -1
 -15 1 1 2 0 0 -2.1113 -1.02343 3.82052 4.82277 1.7768 0. 1
</event>
<event>
 4 80 1 -1 -1 -1
 11 -1 0 0 0 0 0 0 5 5 0 0. 9.
 -11 -1 0 0 0 0 0 0 -4.99798 4.99798 0 0. 9.
 15 1 1 2 0 0 -2.25738 -4.09091 0.029945 4.99899 1.7768 0. -1
 -15 1 1 2 0 0 2.25738 4.09091 -0.0279228 4.99898 1.7768 0. 1
</event>
<event>
 4 80 1 -1 -1 -1
 11 -1 0 0 0 0 0 0 4.99976 4.99976 0 0. 9.
 -11 -1 0 0 0 0 0 0 -4.99939 4.99939 0 0. 9.
 15 1 1 2 0 0 -1.88434 -1.38112 4.04738 4.99972 1.7768 0. -1
 -15 1 1 2 0 0 1.88434 1.38112 -4.04701 4.99943 1.7768 0. 1
</event>
<event>
 4 80 1 -1 -1 -1
 11 -1 0 0 0 0 0 0 5 5 0 0. 9.
 -11 -1 0 0 0 0 0 0 -4.9852 4.9852 0 0. 9.
 15 1 1 2 0 0 3.3251 2.71695 1.83227 4.9953 1.7768 0. 1
 -15 1 1 2 0 0 -3.3251 -2.71695 -1.81747 4.98989 1.7768 0. -1
</event>
<event>
 4 80 1 -1 -1 -1
 11 -1 0 0 0 0 0 0 5 5 0 0. 9.
 -11 -1 0 0 0 0 0 0 -4.99937 4.99937 0 0. 9.
 15 1 1 2 0 0 2.62966 -3.00256 -2.43046 4.99953 1.7768 0. 1
 -15 1 1 2 0 0 -2.62966 3.00256 2.43108 4.99984 1.7768 0. -1
</event>
<event>
 4 80 1 -1 -1 -1
 11 -1 0 0 0 0 0 0 5 5 0 0. 9.
 -11 -1 0 0 0 0 0 0 -4.99907 4.99907 0 0. 9.
 15 1 1 2 0 0 -0.418307 2.10411 -4.15108 4.99915 1.7768 0. -1
 -15 1 1 2 0 0 0.418307 -2.10411 4.15201 4.99992 1.7768 0. 1
</event>
<event>
 4 80 1 -1 -1 -1
 11 -1 0 0 0 0 0 0 4.6824 4.6824 0 0. 9.
 -11 -1 0 0 0 0 0 0 -5 5 0 0. 9.
 15 1 1 2 0 0 4.37556 -0.985232 0.212917 4.82901 1.7768 0. -1
 -15 1 1 2 0 0 -4.37556 0.985232 -0.530518 4.85339 1.7768 0. 1
</event>
<event>
 4 80 1 -1 -1 -1
 11 -1 0 0 0 0 0 0 4.99918 4.99918 0 0. 9.
 -11 -1 0 0 0 0 0 0 -4.99747 4.99747 0 0. 9.
 15 1 1 2 0 0 -1.94109 2.24283 -3.60849 4.99771 1.7768 0. -1
 -15 1 1 2 0 0 1.94109 -2.24283 3.6102 4.99894 1.7768 0. 1
</event>
<event>
 4 80 1 -1 -1 -1
 11 -1 0 0 0 0 0 0 5 5 0 0. 9.
 -11 -1 0 0 0 0 0 0 -4.99026 4.99026 0 0. 9.
 15 1 1 2 0 0 0.873849 2.06677 -4.08884 4.99114 1.7768 0. 1
 -15 1 1 2 0 0 -0.873849 -2.06677 4.09858 4.99912 1.7768 0. -1
</event>
<event>
 4 80 1 -1 -1 -1
 11 -1 0 0 0 0 0 0 4.96962 4.96962 0 0. 9.
 -11 -1 0 0 0 0 0 0 -4.98657 4.98657 0 0. 9.
 15 1 1 2 0 0 -2.59104 2.67425 2.77694 4.97336 1.7768 0. 1
 -15 1 1 2 0 0 2.59104 -2.67425 -2.79388 4.98284 1.7768 0. -1
</event>
<event>
 4 80 1 -1 -1 -1
 11 -1 0 0 0 0 0 0 5 5 0 0. 9.
 -11 -1 0 0 0 0 0 0 -5 5 0 0. 9.
 15 1 1 2 0 0 2.27368 -2.79853 -2.97336 5 1.7768 0. -1
 -15 1 1 2 0 0 -2.27368 2.79853 2.97336 5 1.7768 0. 1
</event>
<event>
 4 80 1 -1 -1 -1
 11 -1 0 0 0 0 0 0 5 5 0 0. 9.
 -11 -1 0 0 0 0 0 0 -4.99862 4.99862 0 0. 9.
 15 1 1 2 0 0 -1.91617 -2.50634 -3.44632 4.99883 1.7768 0. -1
 -15 1 1 2 0 0 1.91617 2.50634 3.44771 4.99979 1.7768 0. 1
</event>
<event>
 4 80 1 -1 -1 -1
 11 -1 0 0 0 0 0 0 4.98114 4.98114 0 0. 9.
 -11 -1 0 0 0 0 0 0 -5 5 0 0. 9.
 15 1 1 2 0 0 3.43215 -3.06808 0.735736 4.98916 1.7768 0. -1
 -15 1 1 2 0 0 -3.43215 3.06808 -0.754593 4.99198 1.7768 0. 1
</event>
<event>
 4 80 1 -1 -1 -1
 11 -1 0 0 0 0 0 0 5 5 0 0. 9.
 -11 -1 0 0 0 0 0 0 -5 5 0 0. 9.
 15 1 1 2 0 0 -1.68155 2.1024 3.82028 5 1.7768 0. -1
 -15 1 1 2 0 0 1.68155 -2.1024 -3.82028 5 1.7768 0. 1
</event>
<event>
 4 80 1 -1 -1 -1
 11 -1 0 0 0 0 0 0 1.3418 1.3418 0 0. 9.
 -11 -1 0 0 0 0 0 0 -5 5 0 0. 9.
 15 1 1 2 0 0 0.505953 -1.4176 -0.44101 2.37019 1.7768 0. -1
 -15 1 1 2 0 0 -0.505953 1.4176 -3.21719 3.97161 1.7768 0. 1
</event>
<event>
 4 80 1 -1 -1 -1
 11 -1 0 0 0 0 0 0 4.99998 4.99998 0 0. 9.
 -11 -1 0 0 0 0 0 0 -5 5 0 0. 9.
 15 1 1 2 0 0 4.34116 0.629238 -1.61264 4.99999 1.7768 0. 1
 -15 1 1 2 0 0 -4.34116 -0.629238 1.61262 4.99999 1.7768 0. -1
</event>
<event>
 4 80 1 -1 -1 -1
 11 -1 0 0 0 0 0 0 5 5 0 0. 9.
 -11 -1 0 0 0 0 0 0 -5 5 0 0. 9.
 15 1 1 2 0 0 2.94078 -0.0797571 -3.63149 5 1.7768 0. -1
 -15 1 1 2 0 0 -2.94078 0.0797571 3.63148 5 1.7768 0. 1
</event>
<event>
 4 80 1 -1 -1 -1
 11 -1 0 0 0 0 0 0 1.41645 1.41645 0 0. 9.
 -11 -1 0 0 0 0 0 0 -5 5 0 0. 9.
 15 1 1 2 0 0 -1.75217 0.898282 -1.52899 3.06147 1.7768 0. 1
 -15 1 1 2 0 0 1.75217 -0.898282 -2.05455 3.35499 1.7768 0. -1
</event>
<event>
 4 80 1 -1 -1 -1
 11 -1 0 0 0 0 0 0 4.99997 4.99997 0 0. 9.
 -11 -1 0 0 0 0 0 0 -0.750955 0.750955 0 0. 9.
 15 1 1 2 0 0 -0.35489 0.362247 2.9896 3.51463 1.7768 0. -1
 -15 1 1 2 0 0 0.35489 -0.362247 1.25941 2.2363 1.7768 0. 1
</event>
<event>
 4 80 1 -1 -1 -1
 11 -1 0 0 0 0 0 0 5 5 0 0. 9.
 -11 -1 0 0 0 0 0 0 -5 5 0 0. 9.
 15 1 1 2 0 0 0.568026 -3.22895 -3.33069 5 1.7768 0. 1
 -15 1 1 2 0 0 -0.568026 3.22895 3.33069 5 1.7768 0. -1
</event>
<event>
 4 80 1 -1 -1 -1
 11 -1 0 0 0 0 0 0 5 5 0 0. 9.
 -11 -1 0 0 0 0 0 0 -5 5 0 0. 9.
 15 1 1 2 0 0 -0.470858 3.36639 3.20749 5 1.7768 0. 1
 -15 1 1 2 0 0 0.470858 -3.36639 -3.20749 5 1.7768 0. -1
</event>
<event>
 4 80 1 -1 -1 -1
 11 -1 0 0 0 0 0 0 5 5 0 0. 9.
 -11 -1 0 0 0 0 0 0 -4.99998 4.99998 0 0. 9.
 15 1 1 2 0 0 0.0149026 4.51965 1.18941 4.99999 1.7768 0. -1
 -15 1 1 2 0 0 -0.0149026 -4.51965 -1.18939 4.99999 1.7768 0. 1
</event>
<event>
 4 80 1 -1 -1 -1
 11 -1 0 0 0 0 0 0 4.99954 4.99954 0 0. 9.
 -11 -1 0 0 0 0 0 0 -5 5 0 0. 9.
 15 1 1 2 0 0 0.407224 3.12116 3.45411 4.99961 1.7768 0. 1
 -15 1 1 2 0 0 -0.407224 -3.12116 -3.45457 4.99993 1.7768 0. -1
</event>
<event>
 4 80 1 -1 -1 -1
 11 -1 0 0 0 0 0 0 5 5 0 0. 9.
 -11 -1 0 0 0 0 0 0 -5 5 0 0. 9.
 15 1 1 2 0 0 -4.31637 -0.395201 1.74787 5 1.7768 0. 1
 -15 1 1 2 0 0 4.31637 0.395201 -1.74787 5 1.7768 0. -1
</event>
<event>
 4 80 1 -1 -1 -1
 11 -1 0 0 0 0 0 0 4.7014 4.7014 0 0. 9.
 -11 -1 0 0 0 0 0 0 -5 5 0 0. 9.
 15 1 1 2 0 0 -4.49494 -0.376475 -0.204394 4.85239 1.7768 0. -1
 -15 1 1 2 0 0 4.49494 0.376475 -0.094208 4.849 1.7768 0. 1
</event>
<event>
 4 80 1 -1 -1 -1
 11 -1 0 0 0 0 0 0 0.75774 0.75774 0 0. 9.
 -11 -1 0 0 0 0 0 0 -4.99329 4.99329 0 0. 9.
 15 1 1 2 0 0 -0.724039 0.289511 -2.3152 3.02091 1.7768 0. 1
 -15 1 1 2 0 0 0.724039 -0.289511 -1.92035 2.73012 1.7768 0. -1
</event>
<event>
 4 80 1 -1 -1 -1
 11 -1 0 0 0 0 0 0 4.99856 4.99856 0 0. 9.
 -11 -1 0 0 0 0 0 0 -4.99855 4.99855 0 0. 9.
 15 1 1 2 0 0 2.53377 -2.89159 -2.65454 4.99856 1.7768 0. 1
 -15 1 1 2 0 0 -2.53377 2.89159 2.65455 4.99856 1.7768 0. -1
</event>
<event>
 4 80 1 -1 -1 -1
 11 -1 0 0 0 0 0 0 4.98705 4.98705 0 0. 9.
 -11 -1 0 0 0 0 0 0 -3.99994 3.99994 0 0. 9.
 15 1 1 2 0 0 0.138381 0.331798 4.60018 4.94456 1.7768 0. 1
 -15 1 1 2 0 0 -0.138381 -0.331798 -3.61307 4.04243 1.7768 0. -1
</event>
<event>
 4 80 1 -1 -1 -1
 11 -1 0 0 0 0 0 0 5 5 0 0. 9.
 -11 -1 0 0 0 0 0 0 -5 5 0 0. 9.
 15 1 1 2 0 0 -1.37192 1.76003 -4.10638 5 1.7768 0. -1
 -15 1 1 2 0 0 1.37192 -1.76003 4.10638 5 1.7768 0. 1
</event>
<event>
 4 80 1 -1 -1 -1
 11 -1 0 0 0 0 0 0 4.97274 4.97274 0 0. 9.
 -11 -1 0 0 0 0 0 0 -5 5 0 0. 9.
 15 1 1 2 0 0 -0.922885 4.56111 0.211251 4.98576 1.7768 0. 1
 -15 1 1 2 0 0 0.922885 -4.56111 -0.238507 4.98699 1.7768 0. -1
</event>
<event>
 4 80 1 -1 -1 -1
 11 -1 0 0 0 0 0 0 5 5 0 0. 9.
 -11 -1 0 0 0 0 0 0 -5 5 0 0. 9.
 15 1 1 2 0 0 -0.45744 0.152194 -4.64864 5 1.7768 0. 1
 -15 1 1 2 0 0 0.45744 -0.152194 4.64864 5 1.7768 0. -1
</event>
<event>
 4 80 1 -1 -1 -1
 11 -1 0 0 0 0 0 0 3.06171 3.06171 0 0. 9.
 -11 -1 0 0 0 0 0 0 -5 5 0 0. 9.
 15 1 1 2 0 0 1.84398 2.24857 -2.94934 4.50696 1.7768 0. 1
 -15 1 1 2 0 0 -1.84398 -2.24857 1.01105 3.55475 1.7768 0. -1
</event>
<event>
 4 80 1 -1 -1 -1
 11 -1 0 0 0 0 0 0 5 5 0 0. 9.
 -11 -1 0 0 0 0 0 0 -5 5 0 0. 9.
 15 1 1 2 0 0 0.0848258 -3.39814 3.20744 5 1.7768 0. -1
 -15 1 1 2 0 0 -0.0848258 3.39814 -3.20744 5 1.7768 0. 1
</event>
<event>
 4 80 1 -1 -1 -1
 11 -1 0 0 0 0 0 0 5 5 0 0. 9.
 -11 -1 0 0 0 0 0 0 -4.70648 4.70648 0 0. 9.
 15 1 1 2 0 0 0.549038 4.39969 -0.699776 4.82764 1.7768 0. -1
 -15 1 1 2 0 0 -0.549038 -4.39969 0.993299 4.87884 1.7768 0. 1
</event>
<event>
 4 80 1 -1 -1 -1
 11 -1 0 0 0 0 0 0 1.73069 1.73069 0 0. 9.
 -11 -1 0 0 0 0 0 0 -4.0555 4.0555 0 0. 9.
 15 1 1 2 0 0 0.391514 1.48774 -2.49736 3.42946 1.7768 0. -1
 -15 1 1 2 0 0 -0.391514 -1.48774 0.172551 2.35673 1.7768 0. 1
</event>
<event>
 4 80 1 -1 -1 -1
 11 -1 0 0 0 0 0 0 5 5 0 0. 9.
 -11 -1 0 0 0 0 0 0 -5 5 0 0. 9.
 15 1 1 2 0 0 1.81214 3.65117 2.28635 5 1.7768 0. 1
 -15 1 1 2 0 0 -1.81214 -3.65117 -2.28635 5 1.7768 0. -1
</event>
<event>
 4 80 1 -1 -1 -1
 11 -1 0 0 0 0 0 0 4.99962 4.99962 0 0. 9.
 -11 -1 0 0 0 0 0 0 -5 5 0 0. 9.
 15 1 1 2 0 0 2.67839 0.653242 -3.77376 4.99995 1.7768 0. -1
 -15 1 1 2 0 0 -2.67839 -0.653242 3.77338 4.99967 1.7768 0. 1
</event>
<event>
 4 80 1 -1 -1 -1
 11 -1 0 0 0 0 0 0 5 5 0 0. 9.
 -11 -1 0 0 0 0 0 0 -4.98427 4.98427 0 0. 9.
 15 1 1 2 0 0 1.6428 -3.1695 3.01105 4.99687 1.7768 0. -1
 -15 1 1 2 0 0 -1.6428 3.1695 -2.99532 4.9874 1.7768 0. 1
</event>
<event>
 4 80 1 -1 -1 -1
 11 -1 0 0 0 0 0 0 5 5 0 0. 9.
 -11 -1 0 0 0 0 0 0 -5 5 0 0. 9.
 15 1 1 2 0 0 -0.669467 1.93261 -4.20227 5 1.7768 0. -1
 -15 1 1 2 0 0 0.669467 -1.93261 4.20227 5 1.7768 0. 1
</event>
<event>
 4 80 1 -1 -1 -1
 11 -1 0 0 0 0 0 0 5 5 0 0. 9.
 -11 -1 0 0 0 0 0 0 -4.93341 4.93341 0 0. 9.
 15 1 1 2 0 0 -0.467204 1.89405 4.24096 4.99491 1.7768 0. 1
 -15 1 1 2 0 0 0.467204 -1.89405 -4.17437 4.9385 1.7768 0. -1
</event>
<event>
 4 80 1 -1 -1 -1
 11 -1 0 0 0 0 0 0 4.99776 4.99776 0 0. 9.
 -11 -1 0 0 0 0 0 0 -5 5 0 0. 9.
 15 1 1 2 0 0 1.73723 -3.3349 2.77224 4.99826 1.7768 0. 1
 -15 1 1 2 0 0 -1.73723 3.3349 -2.77448 4.9995 1.7768 0. -1
</event>
<event>
 4 80 1 -1 -1 -1
 11 -1 0 0 0 0 0 0 4.99999 4.99999 0 0. 9.
 -11 -1 0 0 0 0 0 0 -4.9968 4.9968 0 0. 9.
 15 1 1 2 0 0 3.57601 -0.502061 -2.96258 4.99745 1.7768 0. -1
 -15 1 1 2 0 0 -3.57601 0.502061 2.96577 4.99934 1.7768 0. 1
</event>
<event>
 4 80 1 -1 -1 -1
 11 -1 0 0 0 0 0 0 4.99961 4.99961 0 0. 9.
 -11 -1 0 0 0 0 0 0 -5 5 0 0. 9.
 15 1 1 2 0 0 -3.47303 -0.787206 3.02614 4.99969 1.7768 0. 1
 -15 1 1 2 0 0 3.47303 0.787206 -3.02653 4.99992 1.7768 0. -1
</event>
<event>
 4 80 1 -1 -1 -1
 11 -1 0 0 0 0 0 0 4.99998 4.99998 0 0. 9.
 -11 -1 0 0 0 0 0 0 -5 5 0 0. 9.
 15 1 1 2 0 0 -3.73041 0.178747 2.80967 4.99999 1.7768 0. -1
 -15 1 1 2 0 0 3.73041 -0.178747 -2.80968 5 1.7768 0. 1
</event>
<event>
 4 80 1 -1 -1 -1
 11 -1 0 0 0 0 0 0 4.64926 4.64926 0 0. 9.
 -11 -1 0 0 0 0 0 0 -5 5 0 0. 9.
 15 1 1 2 0 0 2.90924 1.8486 -3.04215 4.92884 1.7768 0. -1
 -15 1 1 2 0 0 -2.90924 -1.8486 2.69141 4.72043 1.7768 0. 1
</event>
<event>
 4 80 1 -1 -1 -1
 11 -1 0 0 0 0 0 0 5 5 0 0. 9.
 -11 -1 0 0 0 0 0 0 -5 5 0 0. 9.
 15 1 1 2 0 0 -0.244152 -2.90389 -3.65378 5 1.7768 0. -1
 -15 1 1 2 0 0 0.244152 2.90389 3.65378 5 1.7768 0. 1
</event>
<event>
 4 80 1 -1 -1 -1
 11 -1 0 0 0 0 0 0 5 5 0 0. 9.
 -11 -1 0 0 0 0 0 0 -3.35167 3.35167 0 0. 9.
 15 1 1 2 0 0 3.25051 1.16991 2.14083 4.4357 1.7768 0. 1
 -15 1 1 2 0 0 -3.25051 -1.16991 -0.492501 3.91597 1.7768 0. -1
</event>
<event>
 4 80 1 -1 -1 -1
 11 -1 0 0 0 0 0 0 5 5 0 0. 9.
 -11 -1 0 0 0 0 0 0 -4.99786 4.99786 0 0. 9.
 15 1 1 2 0 0 2.88108 -1.77287 -3.22196 4.99824 1.7768 0. -1
 -15 1 1 2 0 0 -2.88108 1.77287 3.2241 4.99962 1.7768 0. 1
</event>
<event>
 4 80 1 -1 -1 -1
 11 -1 0 0 0 0 0 0 3.72027 3.72027 0 0. 9.
 -11 -1 0 0 0 0 0 0 -5 5 0 0. 9.
 15 1 1 2 0 0 2.70118 -2.67912 0.355603 4.21405 1.7768 0. 1
 -15 1 1 2 0 0 -2.70118 2.67912 -1.63533 4.50622 1.7768 0. -1
</event>
<event>
 4 80 1 -1 -1 -1
 11 -1 0 0 0 0 0 0 4.99755 4.99755 0 0. 9.
 -11 -1 0 0 0 0 0 0 -4.9995 4.9995 0 0. 9.
 15 1 1 2 0 0 -0.441829 1.14645 4.50658 4.99765 1.7768 0. -1
 -15 1 1 2 0 0 0.441829 -1.14645 -4.50852 4.99941 1.7768 0. 1
</event>
<event>
 4 80 1 -1 -1 -1
 11 -1 0 0 0 0 0 0 5 5 0 0. 9.
 -11 -1 0 0 0 0 0 0 -5 5 0 0. 9.
 15 1 1 2 0 0 3.30645 -2.02537 -2.60912 5 1.7768 0. 1
 -15 1 1 2 0 0 -3.30645 2.02537 2.60912 5 1.7768 0. -1
</event>
<event>
 4 80 1 -1 -1 -1
 11 -1 0 0 0 0 0 0 5 5 0 0. 9.
 -11 -1 0 0 0 0 0 0 -5 5 0 0. 9.
 15 1 1 2 0 0 2.23575 1.8158 3.68057 5 1.7768 0. -1
 -15 1 1 2 0 0 -2.23575 -1.8158 -3.68057 5 1.7768 0. 1
</event>
<event>
 4 80 1 -1 -1 -1
 11 -1 0 0 0 0 0 0 3.876 3.876 0 0. 9.
 -11 -1 0 0 0 0 0 0 -5 5 0 0. 9.
 15 1 1 2 0 0 0.398599 2.98071 2.13908 4.09596 1.7768 0. -1
 -15 1 1 2 0 0 -0.398599 -2.98071 -3.26307 4.78005 1.7768 0. 1
</event>
<event>
 4 80 1 -1 -1 -1
 11 -1 0 0 0 0 0 0 4.99813 4.99813 0 0. 9.
 -11 -1 0 0 0 0 0 0 -5 5 0 0. 9.
 15 1 1 2 0 0 3.61508 2.2302 -1.94781 4.99943 1.7768 0. -1
 -15 1 1 2 0 0 -3.61508 -2.2302 1.94594 4.9987 1.7768 0. 1
</event>
<event>
 4 80 1 -1 -1 -1
 11 -1 0 0 0 0 0 0 4.5957 4.5957 0 0. 9.
 -11 -1 0 0 0 0 0 0 -4.99335 4.99335 0 0. 9.
 15 1 1 2 0 0 1.8861 0.903289 3.73099 4.63156 1.7768 0. 1
 -15 1 1 2 0 0 -1.8861 -0.903289 -4.12864 4.95749 1.7768 0. -1
</event>
<event>
 4 80 1 -1 -1 -1
 11 -1 0 0 0 0 0 0 3.21309 3.21309 0 0. 9.
 -11 -1 0 0 0 0 0 0 -5 5 0 0. 9.
 15 1 1 2 0 0 3.58967 0.138815 -0.840366 4.09499 1.7768 0. 1
 -15 1 1 2 0 0 -3.58967 -0.138815 -0.946547 4.11809 1.7768 0. -1
</event>
<event>
 4 80 1 -1 -1 -1
 11 -1 0 0 0 0 0 0 5 5 0 0. 9.
 -11 -1 0 0 0 0 0 0 -4.99998 4.99998 0 0. 9.
 15 1 1 2 0 0 -0.970567 -1.99538 -4.11322 4.99998 1.7768 0. 1
 -15 1 1 2 0 0 0.970567 1.99538 4.11324 5 1.7768 0. -1
</event>
<event>
 4 80 1 -1 -1 -1
 11 -1 0 0 0 0 0 0 4.99996 4.99996 0 0. 9.
 -11 -1 0 0 0 0 0 0 -5 5 0 0. 9.
 15 1 1 2 0 0 3.85539 -1.69092 2.02947 4.99997 1.7768 0. -1
 -15 1 1 2 0 0 -3.85539 1.69092 -2.0295 4.99999 1.7768 0. 1
</event>
<event>
 4 80 1 -1 -1 -1
 11 -1 0 0 0 0 0 0 3.28623 3.28623 0 0. 9.
 -11 -1 0 0 0 0 0 0 -4.99849 4.99849 0 0. 9.
 15 1 1 2 0 0 -0.0873863 3.26272 -2.50906 4.48398 1.7768 0. -1
 -15 1 1 2 0 0 0.0873863 -3.26272 0.796799 3.80074 1.7768 0. 1
</event>
<event>
 4 80 1 -1 -1 -1
 11 -1 0 0 0 0 0 0 5 5 0 0. 9.
 -11 -1 0 0 0 0 0 0 -5 5 0 0. 9.
 15 1 1 2 0 0 0.859066 2.37735 3.93097 5 1.7768 0. -1
 -15 1 1 2 0 0 -0.859066 -2.37735 -3.93097 5 1.7768 0. 1
</event>
<event>
 4 80 1 -1 -1 -1
 11 -1 0 0 0 0 0 0 5 5 0 0. 9.
 -11 -1 0 0 0 0 0 0 -5 5 0 0. 9.
 15 1 1 2 0 0 -1.22746 -0.392559 4.49238 5 1.7768 0. 1
 -15 1 1 2 0 0 1.22746 0.392559 -4.49238 5 1.7768 0. -1
</event>
<event>
 4 80 1 -1 -1 -1
 11 -1 0 0 0 0 0 0 4.99197 4.99197 0 0. 9.
 -11 -1 0 0 0 0 0 0 -5 5 0 0. 9.
 15 1 1 2 0 0 2.2682 -2.25671 3.39667 4.99325 1.7768 0. -1
 -15 1 1 2 0 0 -2.2682 2.25671 -3.4047 4.99872 1.7768 0. 1
</event>
<event>
 4 80 1 -1 -1 -1
 11 -1 0 0 0 0 0 0 4.93979 4.93979 0 0. 9.
 -11 -1 0 0 0 0 0 0 -4.86354 4.86354 0 0. 9.
 15 1 1 2 0 0 -1.38533 -4.2601 -0.856087 4.89471 1.7768 0. -1
 -15 1 1 2 0 0 1.38533 4.2601 0.932336 4.90862 1.7768 0. 1
</event>
<event>
 4 80 1 -1 -1 -1
 11 -1 0 0 0 0 0 0 4.99978 4.99978 0 0. 9.
 -11 -1 0 0 0 0 0 0 -4.99999 4.99999 0 0. 9.
 15 1 1 2 0 0 2.30935 -2.89449 -2.85142 4.99995 1.7768 0. -1
 -15 1 1 2 0 0 -2.30935 2.89449 2.85121 4.99982 1.7768 0. 1
</event>
<event>
 4 80 1 -1 -1 -1
 11 -1 0 0 0 0 0 0 4.99979 4.99979 0 0. 9.
 -11 -1 0 0 0 0 0 0 -5 5 0 0. 9.
 15 1 1 2 0 0 1.77629 -4.28033 -0.604062 4.99991 1.7768 0. -1
 -15 1 1 2 0 0 -1.77629 4.28033 0.603853 4.99988 1.7768 0. 1
</event>
<event>
 4 80 1 -1 -1 -1
 11 -1 0 0 0 0 0 0 5 5 0 0. 9.
 -11 -1 0 0 0 0 0 0 -4.99881 4.99881 0 0. 9.
 15 1 1 2 0 0 -0.666237 4.21801 -1.897 4.99918 1.7768 0. -1
 -15 1 1 2 0 0 0.666237 -4.21801 1.89819 4.99963 1.7768 0. 1
</event>
<event>
 4 80 1 -1 -1 -1
 11 -1 0 0 0 0 0 0 5 5 0 0. 9.
 -11 -1 0 0 0 0 0 0 -5 5 0 0. 9.
 15 1 1 2 0 0 -0.411113 -3.912 2.52379 5 1.7768 0. -1
 -15 1 1 2 0 0 0.411113 3.912 -2.52379 5 1.7768 0. 1
</event>
<event>
 4 80 1 -1 -1 -1
 11 -1 0 0 0 0 0 0 4.94779 4.94779 0 0. 9.
 -11 -1 0 0 0 0 0 0 -0.793845 0.793845 0 0. 9.
 15 1 1 2 0 0 -0.139618 0.729216 2.75455 3.36103 1.7768 0. 1
 -15 1 1 2 0 0 0.139618 -0.729216 1.3994 2.38061 1.7768 0. -1
</event>
<event>
 4 80 1 -1 -1 -1
 11 -1 0 0 0 0 0 0 5 5 0 0. 9.
 -11 -1 0 0 0 0 0 0 -4.79449 4.79449 0 0. 9.
 15 1 1 2 0 0 1.65482 -4.16638 -0.744508 4.87947 1.7768 0. -1
 -15 1 1 2 0 0 -1.65482 4.16638 0.950019 4.91502 1.7768 0. 1
</event>
<event>
 4 80 1 -1 -1 -1
 11 -1 0 0 0 0 0 0 5 5 0 0. 9.
 -11 -1 0 0 0 0 0 0 -5 5 0 0. 9.
 15 1 1 2 0 0 -1.70796 4.35 0.0510392 5 1.7768 0. -1
 -15 1 1 2 0 0 1.70796 -4.35 -0.0510392 5 1.7768 0. 1
</event>
<event>
 4 80 1 -1 -1 -1
 11 -1 0 0 0 0 0 0 5 5 0 0. 9.
 -11 -1 0 0 0 0 0 0 -4.89693 4.89693 0 0. 9.
 15 1 1 2 0 0 3.47621 2.54897 1.70863 4.96572 1.7768 0. 1
 -15 1 1 2 0 0 -3.47621 -2.54897 -1.60556 4.93121 1.7768 0. -1
</event>
<event>
 4 80 1 -1 -1 -1
 11 -1 0 0 0 0 0 0 4.88691 4.88691 0 0. 9.
 -11 -1 0 0 0 0 0 0 -4.99646 4.99646 0 0. 9.
 15 1 1 2 0 0 -3.46751 2.75413 -1.33964 4.95593 1.7768 0. 1
 -15 1 1 2 0 0 3.46751 -2.75413 1.23009 4.92744 1.7768 0. -1
</event>
<event>
 4 80 1 -1 -1 -1
 11 -1 0 0 0 0 0 0 4.9412 4.9412 0 0. 9.
 -11 -1 0 0 0 0 0 0 -4.99868 4.99868 0 0. 9.
 15 1 1 2 0 0 1.40556 -3.06967 3.15617 4.95152 1.7768 0. 1
 -15 1 1 2 0 0 -1.40556 3.06967 -3.21365 4.98836 1.7768 0. -1
</event>
<event>
 4 80 1 -1 -1 -1
 11 -1 0 0 0 0 0 0 4.97339 4.97339 0 0. 9.
 -11 -1 0 0 0 0 0 0 -4.99988 4.99988 0 0. 9.
 15 1 1 2 0 0 2.75708 1.33101 3.49896 4.9773 1.7768 0. -1
 -15 1 1 2 0 0 -2.75708 -1.33101 -3.52546 4.99597 1.7768 0. 1
</event>
<event>
 4 80 1 -1 -1 -1
 11 -1 0 0 0 0 0 0 4.97538 4.97538 0 0. 9.
 -11 -1 0 0 0 0 0 0 -5 5 0 0. 9.
 15 1 1 2 0 0 0.075186 -1.13212 4.50786 4.97653 1.7768 0. 1
 -15 1 1 2 0 0 -0.075186 1.13212 -4.53248 4.99885 1.7768 0. -1
</event>
<event>
 4 80 1 -1 -1 -1
 11 -1 0 0 0 0 0 0 4.99883 4.99883 0 0. 9.
 -11 -1 0 0 0 0 0 0 -4.99928 4.99928 0 0. 9.
 15 1 1 2 0 0 0.939103 -2.67017 3.71746 4.99889 1.7768 0. 1
 -15 1 1 2 0 0 -0.939103 2.67017 -3.7179 4.99922 1.7768 0. -1
</event>
<event>
 4 80 1 -1 -1 -1
 11 -1 0 0 0 0 0 0 3.95193 3.95193 0 0. 9.
 -11 -1 0 0 0 0 0 0 -4.96365 4.96365 0 0. 9.
 15 1 1 2 0 0 3.04375 2.19456 1.04616 4.28167 1.7768 0. 1
 -15 1 1 2 0 0 -3.04375 -2.19456 -2.05787 4.63391 1.7768 0. -1
</event>
<event>
 4 80 1 -1 -1 -1
 11 -1 0 0 0 0 0 0 5 5 0 0. 9.
 -11 -1 0 0 0 0 0 0 -5 5 0 0. 9.
 15 1 1 2 0 0 -3.09146 -3.29525 1.19436 5 1.7768 0. -1
 -15 1 1 2 0 0 3.09146 3.29525 -1.19436 5 1.7768 0. 1
</event>
<event>
 4 80 1 -1 -1 -1
 11 -1 0 0 0 0 0 0 4.96972 4.96972 0 0. 9.
 -11 -1 0 0 0 0 0 0 -4.99987 4.99987 0 0. 9.
 15 1 1 2 0 0 -3.77332 -1.71517 -2.13887 4.99122 1.7768 0. -1
 -15 1 1 2 0 0 3.77332 1.71517 2.10872 4.97837 1.7768 0. 1
</event>
<event>
 4 80 1 -1 -1 -1
 11 -1 0 0 0 0 0 0 5 5 0 0. 9.
 -11 -1 0 0 0 0 0 0 -5 5 0 0. 9.
 15 1 1 2 0 0 0.949622 0.854845 4.49552 5 1.7768 0. -1
 -15 1 1 2 0 0 -0.949622 -0.854845 -4.49552 5 1.7768 0. 1
</event>
<event>
 4 80 1 -1 -1 -1
 11 -1 0 0 0 0 0 0 5 5 0 0. 9.
 -11 -1 0 0 0 0 0 0 -4.68447 4.68447 0 0. 9.
 15 1 1 2 0 0 1.74668 1.51695 4.0215 4.96812 1.7768 0. 1
 -15 1 1 2 0 0 -1.74668 -1.51695 -3.70597 4.71635 1.7768 0. -1
</event>
<event>
 4 80 1 -1 -1 -1
 11 -1 0 0 0 0 0 0 5 5 0 0. 9.
 -11 -1 0 0 0 0 0 0 -4.99907 4.99907 0 0. 9.
 15 1 1 2 0 0 0.264854 4.37337 1.62561 4.99968 1.7768 0. 1
 -15 1 1 2 0 0 -0.264854 -4.37337 -1.62468 4.99938 1.7768 0. -1
</event>
<event>
 4 80 1 -1 -1 -1
 11 -1 0 0 0 0 0 0 5 5 0 0. 9.
 -11 -1 0 0 0 0 0 0 -5 5 0 0. 9.
 15 1 1 2 0 0 4.10609 -2.21991 -0.233045 5 1.7768 0. -1
 -15 1 1 2 0 0 -4.10609 2.21991 0.233045 5 1.7768 0. 1
</event>
<event>
 4 80 1 -1 -1 -1
 11 -1 0 0 0 0 0 0 5 5 0 0. 9.
 -11 -1 0 0 0 0 0 0 -4.98192 4.98192 0 0. 9.
 15 1 1 2 0 0 1.37898 2.80774 3.46837 4.99723 1.7768 0. -1
 -15 1 1 2 0 0 -1.37898 -2.80774 -3.45029 4.9847 1.7768 0. 1
</event>
<event>
 4 80 1 -1 -1 -1
 11 -1 0 0 0 0 0 0 5 5 0 0. 9.
 -11 -1 0 0 0 0 0 0 -5 5 0 0. 9.
 15 1 1 2 0 0 -0.949581 2.61215 -3.75729 5 1.7768 0. -1
 -15 1 1 2 0 0 0.949581 -2.61215 3.75729 5 1.7768 0. 1
</event>
<event>
 4 80 1 -1 -1 -1
 11 -1 0 0 0 0 0 0 5 5 0 0. 9.
 -11 -1 0 0 0 0 0 0 -1.07652 1.07652 0 0. 9.
 15 1 1 2 0 0 -0.662417 -0.463782 0.320332 1.97844 1.7768 0. 1
 -15 1 1 2 0 0 0.662417 0.463782 3.60314 4.09808 1.7768 0. -1
</event>
<event>
 4 80 1 -1 -1 -1
 11 -1 0 0 0 0 0 0 5 5 0 0. 9.
 -11 -1 0 0 0 0 0 0 -4.99993 4.99993 0 0. 9.
 15 1 1 2 0 0 -1.95217 -4.10525 -1.08527 4.99996 1.7768 0. -1
 -15 1 1 2 0 0 1.95217 4.10525 1.08534 4.99997 1.7768 0. 1
</event>
<event>
 4 80 1 -1 -1 -1
 11 -1 0 0 0 0 0 0 3.04497 3.04497 0 0. 9.
 -11 -1 0 0 0 0 0 0 -5 5 0 0. 9.
 15 1 1 2 0 0 -2.33495 2.56919 -0.85387 3.99244 1.7768 0. -1
 -15 1 1 2 0 0 2.33495 -2.56919 -1.10116 4.05253 1.7768 0. 1
</event>
<event>
 4 80 1 -1 -1 -1
 11 -1 0 0 0 0 0 0 5 5 0 0. 9.
 -11 -1 0 0 0 0 0 0 -4.99921 4.99921 0 0. 9.
 15 1 1 2 0 0 2.32165 -4.04931 0.226988 4.99962 1.7768 0. 1
 -15 1 1 2 0 0 -2.32165 4.04931 -0.226202 4.99959 1.7768 0. -1
</event>
<event>
 4 80 1 -1 -1 -1
 11 -1 0 0 0 0 0 0 4.1148 4.1148 0 0. 9.
 -11 -1 0 0 0 0 0 0 -5 5 0 0. 9.
 15 1 1 2 0 0 -1.1831 3.2106 -2.84321 4.79054 1.7768 0. 1
 -15 1 1 2 0 0 1.1831 -3.2106 1.95801 4.32426 1.7768 0. -1
</event>
<event>
 4 80 1 -1 -1 -1
 11 -1 0 0 0 0 0 0 4.96352 4.96352 0 0. 9.
 -11 -1 0 0 0 0 0 0 -5 5 0 0. 9.
 15 1 1 2 0 0 4.31117 1.74567 0.14398 4.98117 1.7768 0. -1
 -15 1 1 2 0 0 -4.31117 -1.74567 -0.18046 4.98235 1.7768 0. 1
</event>
<event>
 4 80 1 -1 -1 -1
 11 -1 0 0 0 0 0 0 5 5 0 0. 9.
 -11 -1 0 0 0 0 0 0 -5 5 0 0. 9.
 15 1 1 2 0 0 -0.918234 -4.43683 1.14614 5 1.7768 0. 1
 -15 1 1 2 0 0 0.918234 4.43683 -1.14614 5 1.7768 0. -1
</event>
<event>
 4 80 1 -1 -1 -1
 11 -1 0 0 0 0 0 0 5 5 0 0. 9.
 -11 -1 0 0 0 0 0 0 -4.99847 4.99847 0 0. 9.
 15 1 1 2 0 0 -3.60813 -1.99821 2.19693 4.99957 1.7768 0. -1
 -15 1 1 2 0 0 3.60813 1.99821 -2.1954 4.9989 1.7768 0. 1
</event>
<event>
 4 80 1 -1 -1 -1
 11 -1 0 0 0 0 0 0 5 5 0 0. 9.
 -11 -1 0 0 0 0 0 0 -5 5 0 0. 9.
 15 1 1 2 0 0 -1.73613 3.03522 -3.1009 5 1.7768 0. 1
 -15 1 1 2 0 0 1.73613 -3.03522 3.1009 5 1.7768 0. -1
</event>
<event>
 4 80 1 -1 -1 -1
 11 -1 0 0 0 0 0 0 5 5 0 0. 9.
 -11 -1 0 0 0 0 0 0 -5 5 0 0. 9.
 15 1 1 2 0 0 3.46631 -3.09029 -0.52632 5 1.7768 0. 1
 -15 1 1 2 0 0 -3.46631 3.09029 0.52632 5 1.7768 0. -1
</event>
<event>
 4 80 1 -1 -1 -1
 11 -1 0 0 0 0 0 0 4.98982 4.98982 0 0. 9.
 -11 -1 0 0 0 0 0 0 -5 5 0 0. 9.
 15 1 1 2 0 0 1.80323 -0.0757042 -4.3102 4.9993 1.7768 0. 1
 -15 1 1 2 0 0 -1.80323 0.0757042 4.30003 4.99052 1.7768 0. -1
</event>
<event>
 4 80 1 -1 -1 -1
 11 -1 0 0 0 0 0 0 5 5 0 0. 9.
 -11 -1 0 0 0 0 0 0 -4.98503 4.98503 0 0. 9.
 15 1 1 2 0 0 -2.14646 1.33992 3.92728 4.99839 1.7768 0. -1
 -15 1 1 2 0 0 2.14646 -1.33992 -3.91231 4.98664 1.7768 0. 1
</event>
<event>
 4 80 1 -1 -1 -1
 11 -1 0 0 0 0 0 0 1.6849 1.6849 0 0. 9.
 -11 -1 0 0 0 0 0 0 -4.27715 4.27715 0 0. 9.
 15 1 1 2 0 0 -1.75657 0.97015 -1.46126 3.05283 1.7768 0. 1
 -15 1 1 2 0 0 1.75657 -0.97015 -1.13099 2.90923 1.7768 0. -1
</event>
<event>
 4 80 1 -1 -1 -1
 11 -1 0 0 0 0 0 0 4.98644 4.98644 0 0. 9.
 -11 -1 0 0 0 0 0 0 -5 5 0 0. 9.
 15 1 1 2 0 0 0.239766 -2.96388 -3.60295 4.9981 1.7768 0. 1
 -15 1 1 2 0 0 -0.239766 2.96388 3.5894 4.98834 1.7768 0. -1
</event>
<event>
 4 80 1 -1 -1 -1
 11 -1 0 0 0 0 0 0 5 5 0 0. 9.
 -11 -1 0 0 0 0 0 0 -4.99994 4.99994 0 0. 9.
 15 1 1 2 0 0 -2.9402 2.70255 2.42766 4.99998 1.7768 0. 1
 -15 1 1 2 0 0 2.9402 -2.70255 -2.4276 4.99995 1.7768 0. -1
</event>
<event>
 4 80 1 -1 -1 -1
 11 -1 0 0 0 0 0 0 4.99999 4.99999 0 0. 9.
 -11 -1 0 0 0 0 0 0 -5 5 0 0. 9.
 15 1 1 2 0 0 3.40798 -0.679075 3.12518 5 1.7768 0. -1
 -15 1 1 2 0 0 -3.40798 0.679075 -3.12518 5 1.7768 0. 1
</event>
<event>
 4 80 1 -1 -1 -1
 11 -1 0 0 0 0 0 0 5 5 0 0. 9.
 -11 -1 0 0 0 0 0 0 -4.63861 4.63861 0 0. 9.
 15 1 1 2 0 0 -2.15156 1.01432 3.9751 4.96157 1.7768 0. 1
 -15 1 1 2 0 0 2.15156 -1.01432 -3.61371 4.67704 1.7768 0. -1
</event>
<event>
 4 80 1 -1 -1 -1
 11 -1 0 0 0 0 0 0 5 5 0 0. 9.
 -11 -1 0 0 0 0 0 0 -5 5 0 0. 9.
 15 1 1 2 0 0 -2.86488 3.37329 -1.50189 5 1.7768 0. -1
 -15 1 1 2 0 0 2.86488 -3.37329 1.50189 5 1.7768 0. 1
</event>
<event>
 4 80 1 -1 -1 -1
 11 -1 0 0 0 0 0 0 4.99846 4.99846 0 0. 9.
 -11 -1 0 0 0 0 0 0 -5 5 0 0. 9.
 15 1 1 2 0 0 -1.57975 1.38372 4.17347 4.99859 1.7768 0. -1
 -15 1 1 2 0 0 1.57975 -1.38372 -4.17501 4.99987 1.7768 0. 1
</event>
<event>
 4 80 1 -1 -1 -1
 11 -1 0 0 0 0 0 0 4.99984 4.99984 0 0. 9.
 -11 -1 0 0 0 0 0 0 -5 5 0 0. 9.
 15 1 1 2 0 0 -3.77266 -2.17664 -1.69439 4.99995 1.7768 0. 1
 -15 1 1 2 0 0 3.77266 2.17664 1.69423 4.99989 1.7768 0. -1
</event>
<event>
 4 80 1 -1 -1 -1
 11 -1 0 0 0 0 0 0 5 5 0 0. 9.
 -11 -1 0 0 0 0 0 0 -4.99994 4.99994 0 0. 9.
 15 1 1 2 0 0 -1.64829 -4.2499 1.03126 4.99997 1.7768 0. -1
 -15 1 1 2 0 0 1.64829 4.2499 -1.03119 4.99996 1.7768 0. 1
</event>
<event>
 4 80 1 -1 -1 -1
 11 -1 0 0 0 0 0 0 0.830406 0.830406 0 0. 9.
 -11 -1 0 0 0 0 0 0 -4.94613 4.94613 0 0. 9.
 15 1 1 2 0 0 -0.442746 0.682302 -2.82269 3.4332 1.7768 0. -1
 -15 1 1 2 0 0 0.442746 -0.682302 -1.29303 2.34334 1.7768 0. 1
</event>
<event>
 4 80 1 -1 -1 -1
 11 -1 0 0 0 0 0 0 2.93135 2.93135 0 0. 9.
 -11 -1 0 0 0 0 0 0 -5 5 0 0. 9.
 15 1 1 2 0 0 -0.794189 -1.0264 2.21085 3.11927 1.7768 0. 1
 -15 1 1 2 0 0 0.794189 1.0264 -4.2795 4.81208 1.7768 0. -1
</event>
<event>
 4 80 1 -1 -1 -1
 11 -1 0 0 0 0 0 0 5 5 0 0. 9.
 -11 -1 0 0 0 0 0 0 -4.99999 4.99999 0 0. 9.
 15 1 1 2 0 0 -0.111586 -0.949561 -4.57472 4.99999 1.7768 0. -1
 -15 1 1 2 0 0 0.111586 0.949561 4.57473 5 1.7768 0. 1
</event>
<event>
 4 80 1 -1 -1 -1
 11 -1 0 0 0 0 0 0 5 5 0 0. 9.
 -11 -1 0 0 0 0 0 0 -5 5 0 0. 9.
 15 1 1 2 0 0 1.71285 2.51713 -3.54577 5 1.7768 0. -1
 -15 1 1 2 0 0 -1.71285 -2.51713 3.54577 5 1.7768 0. 1
</event>
<event>
 4 80 1 -1 -1 -1
 11 -1 0 0 0 0 0 0 4.82408 4.82408 0 0. 9.
 -11 -1 0 0 0 0 0 0 -4.87246 4.87246 0 0. 9.
 15 1 1 2 0 0 0.52469 0.537286 -4.47211 4.87047 1.7768 0. 1
 -15 1 1 2 0 0 -0.52469 -0.537286 4.42372 4.82608 1.7768 0. -1
</event>
<event>
 4 80 1 -1 -1 -1
 11 -1 0 0 0 0 0 0 4.99998 4.99998 0 0. 9.
 -11 -1 0 0 0 0 0 0 -4.78648 4.78648 0 0. 9.
 15 1 1 2 0 0 2.19105 3.17705 -2.31874 4.84032 1.7768 0. 1
 -15 1 1 2 0 0 -2.19105 -3.17705 2.53225 4.94615 1.7768 0. -1
</event>
<event>
 4 80 1 -1 -1 -1
 11 -1 0 0 0 0 0 0 4.96383 4.96383 0 0. 9.
 -11 -1 0 0 0 0 0 0 -4.58733 4.58733 0 0. 9.
 15 1 1 2 0 0 -0.424859 -3.1957 -2.85056 4.65579 1.7768 0. 1
 -15 1 1 2 0 0 0.424859 3.1957 3.22705 4.89537 1.7768 0. -1
</event>
<event>
 4 80 1 -1 -1 -1
 11 -1 0 0 0 0 0 0 4.86007 4.86007 0 0. 9.
 -11 -1 0 0 0 0 0 0 -4.99999 4.99999 0 0. 9.
 15 1 1 2 0 0 0.934881 -1.11028 4.29348 4.86811 1.7768 0. 1
 -15 1 1 2 0 0 -0.934881 1.11028 -4.4334 4.99195 1.7768 0. -1
</event>
<event>
 4 80 1 -1 -1 -1
 11 -1 0 0 0 0 0 0 4.87195 4.87195 0 0. 9.
 -11 -1 0 0 0 0 0 0 -4.93326 4.93326 0 0. 9.
 15 1 1 2 0 0 -4.55147 0.35635 -0.214979 4.90376 1.7768 0. -1
 -15 1 1 2 0 0 4.55147 -0.35635 0.153662 4.90145 1.7768 0. 1
</event>
<event>
 4 80 1 -1 -1 -1
 11 -1 0 0 0 0 0 0 5 5 0 0. 9.
 -11 -1 0 0 0 0 0 0 -5 5 0 0. 9.
 15 1 1 2 0 0 1.62831 -4.30849 0.792336 5 1.7768 0. 1
 -15 1 1 2 0 0 -1.62831 4.30849 -0.792335 5 1.7768 0. -1
</event>
<event>
 4 80 1 -1 -1 -1
 11 -1 0 0 0 0 0 0 1.68953 1.68953 0 0. 9.
 -11 -1 0 0 0 0 0 0 -4.95262 4.95262 0 0. 9.
 15 1 1 2 0 0 -1.2169 -1.88116 -1.13077 3.07506 1.7768 0. 1
 -15 1 1 2 0 0 1.2169 1.88116 -2.13232 3.56709 1.7768 0. -1
</event>
<event>
 4 80 1 -1 -1 -1
 11 -1 0 0 0 0 0 0 5 5 0 0. 9.
 -11 -1 0 0 0 0 0 0 -5 5 0 0. 9.
 15 1 1 2 0 0 -0.0220082 1.51691 -4.42049 5 1.7768 0. -1
 -15 1 1 2 0 0 0.0220082 -1.51691 4.42049 5 1.7768 0. 1
</event>
<event>
 4 80 1 -1 -1 -1
 11 -1 0 0 0 0 0 0 5 5 0 0. 9.
 -11 -1 0 0 0 0 0 0 -5 5 0 0. 9.
 15 1 1 2 0 0 -0.769044 4.09057 -2.12558 5 1.7768 0. 1
 -15 1 1 2 0 0 0.769044 -4.09057 2.12558 5 1.7768 0. -1
</event>
<event>
 4 80 1 -1 -1 -1
 11 -1 0 0 0 0 0 0 4.35533 4.35533 0 0. 9.
 -11 -1 0 0 0 0 0 0 -4.57421 4.57421 0 0. 9.
 15 1 1 2 0 0 0.530002 -1.43802 3.68849 4.37167 1.7768 0. -1
 -15 1 1 2 0 0 -0.530002 1.43802 -3.90737 4.55786 1.7768 0. 1
</event>
<event>
 4 80 1 -1 -1 -1
 11 -1 0 0 0 0 0 0 4.93575 4.93575 0 0. 9.
 -11 -1 0 0 0 0 0 0 -4.91815 4.91815 0 0. 9.
 15 1 1 2 0 0 2.84565 1.74692 -3.14836 4.92132 1.7768 0. 1
 -15 1 1 2 0 0 -2.84565 -1.74692 3.16595 4.93259 1.7768 0. -1
</event>
<event>
 4 80 1 -1 -1 -1
 11 -1 0 0 0 0 0 0 4.99816 4.99816 0 0. 9.
 -11 -1 0 0 0 0 0 0 -4.99958 4.99958 0 0. 9.
 15 1 1 2 0 0 3.8565 2.12888 1.55694 4.99865 1.7768 0. 1
 -15 1 1 2 0 0 -3.8565 -2.12888 -1.55837 4.99909 1.7768 0. -1
</event>
<event>
 4 80 1 -1 -1 -1
 11 -1 0 0 0 0 0 0 4.50232 4.50232 0 0. 9.
 -11 -1 0 0 0 0 0 0 -5 5 0 0. 9.
 15 1 1 2 0 0 0.177023 2.31411 -3.99128 4.94717 1.7768 0. -1
 -15 1 1 2 0 0 -0.177023 -2.31411 3.4936 4.55515 1.7768 0. 1
</event>
<event>
 4 80 1 -1 -1 -1
 11 -1 0 0 0 0 0 0 5 5 0 0. 9.
 -11 -1 0 0 0 0 0 0 -4.95414 4.95414 0 0. 9.
 15 1 1 2 0 0 3.81121 -0.384553 2.6573 4.98921 1.7768 0. 1
 -15 1 1 2 0 0 -3.81121 0.384553 -2.61144 4.96493 1.7768 0. -1
</event>
<event>
 4 80 1 -1 -1 -1
 11 -1 0 0 0 0 0 0 5 5 0 0. 9.
 -11 -1 0 0 0 0 0 0 -5 5 0 0. 9.
 15 1 1 2 0 0 -1.91635 -2.22223 3.63752 5 1.7768 0. 1
 -15 1 1 2 0 0 1.91635 2.22223 -3.63752 5 1.7768 0. -1
</event>
<event>
 4 80 1 -1 -1 -1
 11 -1 0 0 0 0 0 0 4.99422 4.99422 0 0. 9.
 -11 -1 0 0 0 0 0 0 -5 5 0 0. 9.
 15 1 1 2 0 0 -3.0684 -3.5202 -0.0835808 4.99716 1.7768 0. 1
 -15 1 1 2 0 0 3.0684 3.5202 0.077802 4.99706 1.7768 0. -1
</event>
<event>
 4 80 1 -1 -1 -1
 11 -1 0 0 0 0 0 0 4.99992 4.99992 0 0. 9.
 -11 -1 0 0 0 0 0 0 -5 5 0 0. 9.
 15 1 1 2 0 0 -0.242769 -0.646243 -4.6223 5 1.7768 0. -1
 -15 1 1 2 0 0 0.242769 0.646243 4.62223 4.99993 1.7768 0. 1
</event>
<event>
 4 80 1 -1 -1 -1
 11 -1 0 0 0 0 0 0 3.6579 3.6579 0 0. 9.
 -11 -1 0 0 0 0 0 0 -5 5 0 0. 9.
 15 1 1 2 0 0 -0.915649 2.57633 2.12973 3.89479 1.7768 0. 1
 -15 1 1 2 0 0 0.915649 -2.57633 -3.47183 4.76311 1.7768 0. -1
</event>
<event>
 4 80 1 -1 -1 -1
 11 -1 0 0 0 0 0 0 5 5 0 0. 9.
 -11 -1 0 0 0 0 0 0 -5 5 0 0. 9.
 15 1 1 2 0 0 0.640201 0.921851 -4.53681 5 1.7768 0. -1
 -15 1 1 2 0 0 -0.640201 -0.921851 4.53681 5 1.7768 0. 1
</event>
<event>
 4 80 1 -1 -1 -1
 11 -1 0 0 0 0 0 0 3.89952 3.89952 0 0. 9.
 -11 -1 0 0 0 0 0 0 -5 5 0 0. 9.
 15 1 1 2 0 0 1.33425 1.23621 -4.18807 4.8996 1.7768 0. -1
 -15 1 1 2 0 0 -1.33425 -1.23621 3.08759 3.99992 1.7768 0. 1
</event>
<event>
 4 80 1 -1 -1 -1
 11 -1 0 0 0 0 0 0 1.34804 1.34804 0 0. 9.
 -11 -1 0 0 0 0 0 0 -5 5 0 0. 9.
 15 1 1 2 0 0 -0.466922 -1.73594 -2.55026 3.59069 1.7768 0. 1
 -15 1 1 2 0 0 0.466922 1.73594 -1.1017 2.75735 1.7768 0. -1
</event>
<event>
 4 80 1 -1 -1 -1
 11 -1 0 0 0 0 0 0 5 5 0 0. 9.
 -11 -1 0 0 0 0 0 0 -5 5 0 0. 9.
 15 1 1 2 0 0 1.0151 -2.52468 -3.79972 5 1.7768 0. 1
 -15 1 1 2 0 0 -1.0151 2.52468 3.79972 5 1.7768 0. -1
</event>
<event>
 4 80 1 -1 -1 -1
 11 -1 0 0 0 0 0 0 4.99999 4.99999 0 0. 9.
 -11 -1 0 0 0 0 0 0 -4.88437 4.88437 0 0. 9.
 15 1 1 2 0 0 -3.24446 3.0563 -1.12404 4.92835 1.7768 0. -1
 -15 1 1 2 0 0 3.24446 -3.0563 1.23967 4.95601 1.7768 0. 1
</event>
<event>
 4 80 1 -1 -1 -1
 11 -1 0 0 0 0 0 0 3.24055 3.24055 0 0. 9.
 -11 -1 0 0 0 0 0 0 -4.99796 4.99796 0 0. 9.
 15 1 1 2 0 0 1.63457 -2.49597 -2.96053 4.56334 1.7768 0. 1
 -15 1 1 2 0 0 -1.63457 2.49597 1.20311 3.67517 1.7768 0. -1
</event>
<event>
 4 80 1 -1 -1 -1
 11 -1 0 0 0 0 0 0 4.16253 4.16253 0 0. 9.
 -11 -1 0 0 0 0 0 0 -5 5 0 0. 9.
 15 1 1 2 0 0 -1.02987 -4.02094 -1.07442 4.6412 1.7768 0. 1
 -15 1 1 2 0 0 1.02987 4.02094 0.23695 4.52133 1.7768 0. -1
</event>
<event>
 4 80 1 -1 -1 -1
 11 -1 0 0 0 0 0 0 4.99998 4.99998 0 0. 9.
 -11 -1 0 0 0 0 0 0 -4.93488 4.93488 0 0. 9.
 15 1 1 2 0 0 -1.74442 -0.916 -4.16688 4.93991 1.7768 0. 1
 -15 1 1 2 0 0 1.74442 0.916 4.23198 4.99495 1.7768 0. -1
</event>
<event>
 4 80 1 -1 -1 -1
 11 -1 0 0 0 0 0 0 4.59712 4.59712 0 0. 9.
 -11 -1 0 0 0 0 0 0 -4.9724 4.9724 0 0. 9.
 15 1 1 2 0 0 -3.58657 -1.80413 -2.08189 4.85905 1.7768 0. -1
 -15 1 1 2 0 0 3.58657 1.80413 1.70661 4.71048 1.7768 0. 1
</event>
<event>
 4 80 1 -1 -1 -1
 11 -1 0 0 0 0 0 0 1.55002 1.55002 0 0. 9.
 -11 -1 0 0 0 0 0 0 -4.99996 4.99996 0 0. 9.
 15 1 1 2 0 0 -1.70402 0.915055 -2.81037 3.84668 1.7768 0. -1
 -15 1 1 2 0 0 1.70402 -0.915055 -0.639571 2.7033 1.7768 0. 1
</event>
<event>
 4 80 1 -1 -1 -1
 11 -1 0 0 0 0 0 0 4.78667 4.78667 0 0. 9.
 -11 -1 0 0 0 0 0 0 -3.6673 3.6673 0 0. 9.
 15 1 1 2 0 0 -0.893811 0.615977 -3.10828 3.74132 1.7768 0. 1
 -15 1 1 2 0 0 0.893811 -0.615977 4.22765 4.71265 1.7768 0. -1
</event>
<event>
 4 80 1 -1 -1 -1
 11 -1 0 0 0 0 0 0 5 5 0 0. 9.
 -11 -1 0 0 0 0 0 0 -5 5 0 0. 9.
 15 1 1 2 0 0 1.11739 -3.08006 3.33271 5 1.7768 0. -1
 -15 1 1 2 0 0 -1.11739 3.08006 -3.33271 5 1.7768 0. 1
</event>
<event>
 4 80 1 -1 -1 -1
 11 -1 0 0 0 0 0 0 4.99999 4.99999 0 0. 9.
 -11 -1 0 0 0 0 0 0 -4.90616 4.90616 0 0. 9.
 15 1 1 2 0 0 4.1583 0.914734 1.84833 4.97013 1.7768 0. 1
 -15 1 1 2 0 0 -4.1583 -0.914734 -1.75451 4.93601 1.7768 0. -1
</event>
<event>
 4 80 1 -1 -1 -1
 11 -1 0 0 0 0 0 0 5 5 0 0. 9.
 -11 -1 0 0 0 0 0 0 -4.9999 4.9999 0 0. 9.
 15 1 1 2 0 0 -2.06488 -1.07555 -4.05226 4.99991 1.7768 0. -1
 -15 1 1 2 0 0 2.06488 1.07555 4.05236 4.99999 1.7768 0. 1
</event>
<event>
 4 80 1 -1 -1 -1
 11 -1 0 0 0 0 0 0 5 5 0 0. 9.
 -11 -1 0 0 0 0 0 0 -5 5 0 0. 9.
 15 1 1 2 0 0 4.60533 -0.45069 0.655835 5 1.7768 0. -1
 -15 1 1 2 0 0 -4.60533 0.45069 -0.655835 5 1.7768 0. 1
</event>
<event>
 4 80 1 -1 -1 -1
 11 -1 0 0 0 0 0 0 5 5 0 0. 9.
 -11 -1 0 0 0 0 0 0 -4.99943 4.99943 0 0. 9.
 15 1 1 2 0 0 1.93387 -2.51587 3.43102 4.99991 1.7768 0. 1
 -15 1 1 2 0 0 -1.93387 2.51587 -3.43045 4.99952 1.7768 0. -1
</event>
<event>
 4 80 1 -1 -1 -1
 11 -1 0 0 0 0 0 0 4.98282 4.98282 0 0. 9.
 -11 -1 0 0 0 0 0 0 -5 5 0 0. 9.
 15 1 1 2 0 0 4.47619 -1.07044 0.749219 4.99011 1.7768 0. 1
 -15 1 1 2 0 0 -4.47619 1.07044 -0.766399 4.99271 1.7768 0. -1
</event>
<event>
 4 80 1 -1 -1 -1
 11 -1 0 0 0 0 0 0 4.99999 4.99999 0 0. 9.
 -11 -1 0 0 0 0 0 0 -4.99942 4.99942 0 0. 9.
 15 1 1 2 0 0 0.553474 0.0858566 -4.63929 4.99944 1.7768 0. -1
 -15 1 1 2 0 0 -0.553474 -0.0858566 4.63985 4.99997 1.7768 0. 1
</event>
<event>
 4 80 1 -1 -1 -1
 11 -1 0 0 0 0 0 0 4.99202 4.99202 0 0. 9.
 -11 -1 0 0 0 0 0 0 -5 5 0 0. 9.
 15 1 1 2 0 0 -2.98272 3.50258 0.794557 4.99537 1.7768 0. 1
 -15 1 1 2 0 0 2.98272 -3.50258 -0.802536 4.99665 1.7768 0. -1
</event>
<event>
 4 80 1 -1 -1 -1
 11 -1 0 0 0 0 0 0 3.92873 3.92873 0 0. 9.
 -11 -1 0 0 0 0 0 0 -5 5 0 0. 9.
 15 1 1 2 0 0 0.267378 -3.12041 2.06725 4.15207 1.7768 0. -1
 -15 1 1 2 0 0 -0.267378 3.12041 -3.13852 4.77666 1.7768 0. 1
</event>
<event>
 4 80 1 -1 -1 -1
 11 -1 0 0 0 0 0 0 5 5 0 0. 9.
 -11 -1 0 0 0 0 0 0 -5 5 0 0. 9.
 15 1 1 2 0 0 0.549287 -1.8085 4.27433 5 1.7768 0. -1
 -15 1 1 2 0 0 -0.549287 1.8085 -4.27433 5 1.7768 0. 1
</event>
<event>
 4 80 1 -1 -1 -1
 11 -1 0 0 0 0 0 0 4.99992 4.99992 0 0. 9.
 -11 -1 0 0 0 0 0 0 -5 5 0 0. 9.
 15 1 1 2 0 0 1.68201 -3.09664 3.06974 4.99994 1.7768 0. -1
 -15 1 1 2 0 0 -1.68201 3.09664 -3.06982 4.99999 1.7768 0. 1
</event>
<event>
 4 80 1 -1 -1 -1
 11 -1 0 0 0 0 0 0 5 5 0 0. 9.
 -11 -1 0 0 0 0 0 0 -5 5 0 0. 9.
 15 1 1 2 0 0 4.62727 -0.633416 0.17147 5 1.7768 0. -1
 -15 1 1 2 0 0 -4.62727 0.633416 -0.17147 5 1.7768 0. 1
</event>
<event>
 4 80 1 -1 -1 -1
 11 -1 0 0 0 0 0 0 4.99999 4.99999 0 0. 9.
 -11 -1 0 0 0 0 0 0 -4.88677 4.88677 0 0. 9.
 15 1 1 2 0 0 1.64841 -3.79583 -1.9808 4.92005 1.7768 0. -1
 -15 1 1 2 0 0 -1.64841 3.79583 2.09401 4.96671 1.7768 0. 1
</event>
<event>
 4 80 1 -1 -1 -1
 11 -1 0 0 0 0 0 0 4.99994 4.99994 0 0. 9.
 -11 -1 0 0 0 0 0 0 -4.7659 4.7659 0 0. 9.
 15 1 1 2 0 0 0.633018 4.18881 -1.53411 4.84335 1.7768 0. 1
 -15 1 1 2 0 0 -0.633018 -4.18881 1.76815 4.92249 1.7768 0. -1
</event>
<event>
 4 80 1 -1 -1 -1
 11 -1 0 0 0 0 0 0 0.856491 0.856491 0 0. 9.
 -11 -1 0 0 0 0 0 0 -5 5 0 0. 9.
 15 1 1 2 0 0 -0.481654 -0.8897 -1.62168 2.60982 1.7768 0. 1
 -15 1 1 2 0 0 0.481654 0.8897 -2.52182 3.24667 1.7768 0. -1
</event>
<event>
 4 80 1 -1 -1 -1
 11 -1 0 0 0 0 0 0 5 5 0 0. 9.
 -11 -1 0 0 0 0 0 0 -4.88552 4.88552 0 0. 9.
 15 1 1 2 0 0 3.98179 1.42338 -1.78385 4.92144 1.7768 0. 1
 -15 1 1 2 0 0 -3.98179 -1.42338 1.89834 4.96408 1.7768 0. -1
</event>
<event>
 4 80 1 -1 -1 -1
 11 -1 0 0 0 0 0 0 5 5 0 0. 9.
 -11 -1 0 0 0 0 0 0 -4.99967 4.99967 0 0. 9.
 15 1 1 2 0 0 -0.0185825 0.405479 -4.65557 4.99968 1.7768 0. 1
 -15 1 1 2 0 0 0.0185825 -0.405479 4.6559 4.99999 1.7768 0. -1
</event>
<event>
 4 80 1 -1 -1 -1
 11 -1 0 0 0 0 0 0 4.97683 4.97683 0 0. 9.
 -11 -1 0 0 0 0 0 0 -5 5 0 0. 9.
 15 1 1 2 0 0 -1.93862 1.51539 3.94718 4.97922 1.7768 0. 1
 -15 1 1 2 0 0 1.93862 -1.51539 -3.97035 4.99761 1.7768 0. -1
</event>
<event>
 4 80 1 -1 -1 -1
 11 -1 0 0 0 0 0 0 4.99791 4.99791 0 0. 9.
 -11 -1 0 0 0 0 0 0 -1.02252 1.02252 0 0. 9.
 15 1 1 2 0 0 0.257495 1.34285 2.37171 3.26379 1.7768 0. 1
 -15 1 1 2 0 0 -0.257495 -1.34285 1.60368 2.75664 1.7768 0. -1
</event>
<event>
 4 80 1 -1 -1 -1
 11 -1 0 0 0 0 0 0 5 5 0 0. 9.
 -11 -1 0 0 0 0 0 0 -5 5 0 0. 9.
 15 1 1 2 0 0 1.60691 3.52071 -2.62006 5 1.7768 0. -1
 -15 1 1 2 0 0 -1.60691 -3.52071 2.62006 5 1.7768 0. 1
</event>
<event>
 4 80 1 -1 -1 -1
 11 -1 0 0 0 0 0 0 5 5 0 0. 9.
 -11 -1 0 0 0 0 0 0 -5 5 0 0. 9.
 15 1 1 2 0 0 3.93919 0.0920667 2.51328 5 1.7768 0. 1
 -15 1 1 2 0 0 -3.93919 -0.0920667 -2.51328 5 1.7768 0. -1
</event>
<event>
 4 80 1 -1 -1 -1
 11 -1 0 0 0 0 0 0 5 5 0 0. 9.
 -11 -1 0 0 0 0 0 0 -5 5 0 0. 9.
 15 1 1 2 0 0 3.75709 1.59831 2.2742 5 1.7768 0. 1
 -15 1 1 2 0 0 -3.75709 -1.59831 -2.2742 5 1.7768 0. -1
</event>
<event>
 4 80 1 -1 -1 -1
 11 -1 0 0 0 0 0 0 5 5 0 0. 9.
 -11 -1 0 0 0 0 0 0 -5 5 0 0. 9.
 15 1 1 2 0 0 1.6851 -4.26526 -0.900128 5 1.7768 0. -1
 -15 1 1 2 0 0 -1.6851 4.26526 0.900128 5 1.7768 0. 1
</event>
<event>
 4 80 1 -1 -1 -1
 11 -1 0 0 0 0 0 0 4.99881 4.99881 0 0. 9.
 -11 -1 0 0 0 0 0 0 -5 5 0 0. 9.
 15 1 1 2 0 0 -0.73571 4.00536 2.29117 4.99913 1.7768 0. 1
 -15 1 1 2 0 0 0.73571 -4.00536 -2.29236 4.99968 1.7768 0. -1
</event>
<event>
 4 80 1 -1 -1 -1
 11 -1 0 0 0 0 0 0 5 5 0 0. 9.
 -11 -1 0 0 0 0 0 0 -5 5 0 0. 9.
 15 1 1 2 0 0 2.11487 -2.89255 -3.00045 5 1.7768 0. 1
 -15 1 1 2 0 0 -2.11487 2.89255 3.00045 5 1.7768 0. -1
</event>
<event>
 4 80 1 -1 -1 -1
 11 -1 0 0 0 0 0 0 4.9992 4.9992 0 0. 9.
 -11 -1 0 0 0 0 0 0 -5 5 0 0. 9.
 15 1 1 2 0 0 -0.741274 -1.98777 -4.16424 4.99993 1.7768 0. -1
 -15 1 1 2 0 0 0.741274 1.98777 4.16344 4.99926 1.7768 0. 1
</event>
<event>
 4 80 1 -1 -1 -1
 11 -1 0 0 0 0 0 0 3.38129 3.38129 0 0. 9.
 -11 -1 0 0 0 0 0 0 -5 5 0 0. 9.
 15 1 1 2 0 0 -1.60686 -3.32279 -0.447913 4.12084 1.7768 0. 1
 -15 1 1 2 0 0 1.60686 3.32279 -1.1708 4.26045 1.7768 0. -1
</event>
<event>
 4 80 1 -1 -1 -1
 11 -1 0 0 0 0 0 0 5 5 0 0. 9.
 -11 -1 0 0 0 0 0 0 -5 5 0 0. 9.
 15 1 1 2 0 0 1.67117 3.51041 -2.59355 5 1.7768 0. -1
 -15 1 1 2 0 0 -1.67117 -3.51041 2.59354 5 1.7768 0. 1
</event>
<event>
 4 80 1 -1 -1 -1
 11 -1 0 0 0 0 0 0 4.99154 4.99154 0 0. 9.
 -11 -1 0 0 0 0 0 0 -4.91228 4.91228 0 0. 9.
 15 1 1 2 0 0 -3.88068 2.24417 1.16489 4.96092 1.7768 0. -1
 -15 1 1 2 0 0 3.88068 -2.24417 -1.08563 4.9429 1.7768 0. 1
</event>
<event>
 4 80 1 -1 -1 -1
 11 -1 0 0 0 0 0 0 5 5 0 0. 9.
 -11 -1 0 0 0 0 0 0 -5 5 0 0. 9.
 15 1 1 2 0 0 -2.0365 -1.54465 -3.91267 5 1.7768 0. -1
 -15 1 1 2 0 0 2.0365 1.54465 3.91267 5 1.7768 0. 1
</event>
<event>
 4 80 1 -1 -1 -1
 11 -1 0 0 0 0 0 0 4.40161 4.40161 0 0. 9.
 -11 -1 0 0 0 0 0 0 -5 5 0 0. 9.
 15 1 1 2 0 0 2.63727 -3.15386 1.09945 4.61179 1.7768 0. -1
 -15 1 1 2 0 0 -2.63727 3.15386 -1.69784 4.78983 1.7768 0. 1
</event>
<event>
 4 80 1 -1 -1 -1
 11 -1 0 0 0 0 0 0 5 5 0 0. 9.
 -11 -1 0 0 0 0 0 0 -4.88239 4.88239 0 0. 9.
 15 1 1 2 0 0 1.07124 -1.56618 4.26074 4.9912 1.7768 0. 1
 -15 1 1 2 0 0 -1.07124 1.56618 -4.14314 4.89119 1.7768 0. -1
</event>
<event>
 4 80 1 -1 -1 -1
 11 -1 0 0 0 0 0 0 4.95613 4.95613 0 0. 9.
 -11 -1 0 0 0 0 0 0 -5 5 0 0. 9.
 15 1 1 2 0 0 -1.90803 -1.70047 3.86279 4.96095 1.7768 0. 1
 -15 1 1 2 0 0 1.90803 1.70047 -3.90666 4.99518 1.7768 0. -1
</event>
<event>
 4 80 1 -1 -1 -1
 11 -1 0 0 0 0 0 0 5 5 0 0. 9.
 -11 -1 0 0 0 0 0 0 -4.99992 4.99992 0 0. 9.
 15 1 1 2 0 0 -1.62669 -4.26668 -0.995555 4.99995 1.7768 0. -1
 -15 1 1 2 0 0 1.62669 4.26668 0.99564 4.99997 1.7768 0. 1
</event>
<event>
 4 80 1 -1 -1 -1
 11 -1 0 0 0 0 0 0 5 5 0 0. 9.
 -11 -1 0 0 0 0 0 0 -4.99869 4.99869 0 0. 9.
 15 1 1 2 0 0 1.23496 -3.89382 2.26973 4.99964 1.7768 0. -1
 -15 1 1 2 0 0 -1.23496 3.89382 -2.26842 4.99904 1.7768 0. 1
</event>
<event>
 4 80 1 -1 -1 -1
 11 -1 0 0 0 0 0 0 5 5 0 0. 9.
 -11 -1 0 0 0 0 0 0 -4.9984 4.9984 0 0. 9.
 15 1 1 2 0 0 -1.07648 2.00702 4.08091 4.99985 1.7768 0. 1
 -15 1 1 2 0 0 1.07648 -2.00702 -4.07931 4.99855 1.7768 0. -1
</event>
<event>
 4 80 1 -1 -1 -1
 11 -1 0 0 0 0 0 0 4.97733 4.97733 0 0. 9.
 -11 -1 0 0 0 0 0 0 -4.84971 4.84971 0 0. 9.
 15 1 1 2 0 0 3.86618 0.401488 2.48731 4.945 1.7768 0. -1
 -15 1 1 2 0 0 -3.86618 -0.401488 -2.35968 4.88205 1.7768 0. 1
</event>
<event>
 4 80 1 -1 -1 -1
 11 -1 0 0 0 0 0 0 4.94988 4.94988 0 0. 9.
 -11 -1 0 0 0 0 0 0 -5 5 0 0. 9.
 15 1 1 2 0 0 0.88076 -4.51546 -0.678202 4.97823 1.7768 0. -1
 -15 1 1 2 0 0 -0.88076 4.51546 0.628083 4.97165 1.7768 0. 1
</event>
<event>
 4 80 1 -1 -1 -1
 11 -1 0 0 0 0 0 0 4.9993 4.9993 0 0. 9.
 -11 -1 0 0 0 0 0 0 -5 5 0 0. 9.
 15 1 1 2 0 0 -1.08056 -3.96064 2.23224 4.9995 1.7768 0. 1
 -15 1 1 2 0 0 1.08056 3.96064 -2.23294 4.99981 1.7768 0. -1
</event>
<event>
 4 80 1 -1 -1 -1
 11 -1 0 0 0 0 0 0 4.91875 4.91875 0 0. 9.
 -11 -1 0 0 0 0 0 0 -5 5 0 0. 9.
 15 1 1 2 0 0 0.210762 2.27395 3.98701 4.92639 1.7768 0. 1
 -15 1 1 2 0 0 -0.210762 -2.27395 -4.06826 4.99237 1.7768 0. -1
</event>
<event>
 4 80 1 -1 -1 -1
 11 -1 0 0 0 0 0 0 4.94335 4.94335 0 0. 9.
 -11 -1 0 0 0 0 0 0 -4.99998 4.99998 0 0. 9.
 15 1 1 2 0 0 -3.88495 1.42976 2.07454 4.95969 1.7768 0. -1
 -15 1 1 2 0 0 3.88495 -1.42976 -2.13117 4.98364 1.7768 0. 1
</event>
<event>
 4 80 1 -1 -1 -1
 11 -1 0 0 0 0 0 0 5 5 0 0. 9.
 -11 -1 0 0 0 0 0 0 -5 5 0 0. 9.
 15 1 1 2 0 0 4.54892 -0.958446 -0.48057 5 1.7768 0. -1
 -15 1 1 2 0 0 -4.54892 0.958446 0.48057 5 1.7768 0. 1
</event>
<event>
 4 80 1 -1 -1 -1
 11 -1 0 0 0 0 0 0 5 5 0 0. 9.
 -11 -1 0 0 0 0 0 0 -5 5 0 0. 9.
 15 1 1 2 0 0 -1.95969 1.95777 3.76417 5 1.7768 0. -1
 -15 1 1 2 0 0 1.95969 -1.95777 -3.76417 5 1.7768 0. 1
</event>
<event>
 4 80 1 -1 -1 -1
 11 -1 0 0 0 0 0 0 2.03087 2.03087 0 0. 9.
 -11 -1 0 0 0 0 0 0 -4.99735 4.99735 0 0. 9.
 15 1 1 2 0 0 0.0360352 2.22574 -3.0572 4.17845 1.7768 0. 1
 -15 1 1 2 0 0 -0.0360352 -2.22574 0.0907194 2.84977 1.7768 0. -1
</event>
<event>
 4 80 1 -1 -1 -1
 11 -1 0 0 0 0 0 0 4.99996 4.99996 0 0. 9.
 -11 -1 0 0 0 0 0 0 -4.99986 4.99986 0 0. 9.
 15 1 1 2 0 0 2.92988 -0.24305 3.63297 4.99995 1.7768 0. 1
 -15 1 1 2 0 0 -2.92988 0.24305 -3.63287 4.99987 1.7768 0. -1
</event>
<event>
 4 80 1 -1 -1 -1
 11 -1 0 0 0 0 0 0 4.99396 4.99396 0 0. 9.
 -11 -1 0 0 0 0 0 0 -4.99999 4.99999 0 0. 9.
 15 1 1 2 0 0 3.51357 -0.936313 -2.93391 4.99874 1.7768 0. 1
 -15 1 1 2 0 0 -3.51357 0.936313 2.92788 4.99521 1.7768 0. -1
</event>
<event>
 4 80 1 -1 -1 -1
 11 -1 0 0 0 0 0 0 5 5 0 0. 9.
 -11 -1 0 0 0 0 0 0 -3.62109 3.62109 0 0. 9.
 15 1 1 2 0 0 -0.412885 3.57177 2.12916 4.54082 1.7768 0. -1
 -15 1 1 2 0 0 0.412885 -3.57177 -0.750253 4.08027 1.7768 0. 1
</event>
<event>
 4 80 1 -1 -1 -1
 11 -1 0 0 0 0 0 0 4.99961 4.99961 0 0. 9.
 -11 -1 0 0 0 0 0 0 -4.9908 4.9908 0 0. 9.
 15 1 1 2 0 0 -3.68315 -2.86624 0.120124 4.9953 1.7768 0. 1
 -15 1 1 2 0 0 3.68315 2.86624 -0.111316 4.9951 1.7768 0. -1
</event>
<event>
 4 80 1 -1 -1 -1
 11 -1 0 0 0 0 0 0 5 5 0 0. 9.
 -11 -1 0 0 0 0 0 0 -5 5 0 0. 9.
 15 1 1 2 0 0 0.0730198 -0.233824 -4.66714 5 1.7768 0. -1
 -15 1 1 2 0 0 -0.0730198 0.233824 4.66715 5 1.7768 0. 1
</event>
<event>
 4 80 1 -1 -1 -1
 11 -1 0 0 0 0 0 0 4.99998 4.99998 0 0. 9.
 -11 -1 0 0 0 0 0 0 -4.99996 4.99996 0 0. 9.
 15 1 1 2 0 0 -3.47234 -2.76544 -1.46188 4.99996 1.7768 0. 1
 -15 1 1 2 0 0 3.47234 2.76544 1.4619 4.99997 1.7768 0. -1
</event>
<event>
 4 80 1 -1 -1 -1
 11 -1 0 0 0 0 0 0 5 5 0 0. 9.
 -11 -1 0 0 0 0 0 0 -4.99999 4.99999 0 0. 9.
 15 1 1 2 0 0 3.51486 3.03597 0.520462 5 1.7768 0. 1
 -15 1 1 2 0 0 -3.51486 -3.03597 -0.520452 4.99999 1.7768 0. -1
</event>
<event>
 4 80 1 -1 -1 -1
 11 -1 0 0 0 0 0 0 5 5 0 0. 9.
 -11 -1 0 0 0 0 0 0 -5 5 0 0. 9.
 15 1 1 2 0 0 -0.0375118 3.4854 -3.11334 5 1.7768 0. 1
 -15 1 1 2 0 0 0.0375118 -3.4854 3.11333 5 1.7768 0. -1
</event>
<event>
 4 80 1 -1 -1 -1
 11 -1 0 0 0 0 0 0 5 5 0 0. 9.
 -11 -1 0 0 0 0 0 0 -5 5 0 0. 9.
 15 1 1 2 0 0 3.59476 0.759101 2.88855 5 1.7768 0. 1
 -15 1 1 2 0 0 -3.59476 -0.759101 -2.88855 5 1.7768 0. -1
</event>
<event>
 4 80 1 -1 -1 -1
 11 -1 0 0 0 0 0 0 5 5 0 0. 9.
 -11 -1 0 0 0 0 0 0 -5 5 0 0. 9.
 15 1 1 2 0 0 -3.29772 1.61207 -2.89285 5 1.7768 0. -1
 -15 1 1 2 0 0 3.29772 -1.61207 2.89284 5 1.7768 0. 1
</event>
<event>
 4 80 1 -1 -1 -1
 11 -1 0 0 0 0 0 0 3.79907 3.79907 0 0. 9.
 -11 -1 0 0 0 0 0 0 -5 5 0 0. 9.
 15 1 1 2 0 0 0.331671 1.18619 -4.42047 4.9209 1.7768 0. 1
 -15 1 1 2 0 0 -0.331671 -1.18619 3.21954 3.87817 1.7768 0. -1
</event>
<event>
 4 80 1 -1 -1 -1
 11 -1 0 0 0 0 0 0 4.88595 4.88595 0 0. 9.
 -11 -1 0 0 0 0 0 0 -5 5 0 0. 9.
 15 1 1 2 0 0 -1.27181 4.31282 0.969769 4.93113 1.7768 0. -1
 -15 1 1 2 0 0 1.27181 -4.31282 -1.08381 4.95482 1.7768 0. 1
</event>
<event>
 4 80 1 -1 -1 -1
 11 -1 0 0 0 0 0 0 2.91164 2.91164 0 0. 9.
 -11 -1 0 0 0 0 0 0 -5 5 0 0. 9.
 15 1 1 2 0 0 -1.09596 -3.01594 -2.13327 4.2433 1.7768 0. -1
 -15 1 1 2 0 0 1.09596 3.01594 0.044911 3.66835 1.7768 0. 1
</event>
<event>
 4 80 1 -1 -1 -1
 11 -1 0 0 0 0 0 0 4.99023 4.99023 0 0. 9.
 -11 -1 0 0 0 0 0 0 -1.08426 1.08426 0 0. 9.
 15 1 1 2 0 0 0.456271 -1.14742 0.83875 2.32077 1.7768 0. -1
 -15 1 1 2 0 0 -0.456271 1.14742 3.06723 3.75372 1.7768 0. 1
</event>
<event>
 4 80 1 -1 -1 -1
 11 -1 0 0 0 0 0 0 5 5 0 0. 9.
 -11 -1 0 0 0 0 0 0 -4.99992 4.99992 0 0. 9.
 15 1 1 2 0 0 2.26875 3.53985 2.04066 4.99998 1.7768 0. -1
 -15 1 1 2 0 0 -2.26875 -3.53985 -2.04058 4.99994 1.7768 0. 1
</event>
<event>
 4 80 1 -1 -1 -1
 11 -1 0 0 0 0 0 0 3.44393 3.44393 0 0. 9.
 -11 -1 0 0 0 0 0 0 -5 5 0 0. 9.
 15 1 1 2 0 0 -0.978114 3.61299 -0.547044 4.1794 1.7768 0. -1
 -15 1 1 2 0 0 0.978114 -3.61299 -1.00902 4.26453 1.7768 0. 1
</event>
<event>
 4 80 1 -1 -1 -1
 11 -1 0 0 0 0 0 0 4.99999 4.99999 0 0. 9.
 -11 -1 0 0 0 0 0 0 -4.99971 4.99971 0 0. 9.
 15 1 1 2 0 0 -2.63863 -1.81058 3.40605 4.99994 1.7768 0. -1
 -15 1 1 2 0 0 2.63863 1.81058 -3.40577 4.99975 1.7768 0. 1
</event>
<event>
 4 80 1 -1 -1 -1
 11 -1 0 0 0 0 0 0 5 5 0 0. 9.
 -11 -1 0 0 0 0 0 0 -5 5 0 0. 9.
 15 1 1 2 0 0 -2.13186 2.8118 -3.06451 5 1.7768 0. -1
 -15 1 1 2 0 0 2.13186 -2.8118 3.06451 5 1.7768 0. 1
</event>
<event>
 4 80 1 -1 -1 -1
 11 -1 0 0 0 0 0 0 4.70151 4.70151 0 0. 9.
 -11 -1 0 0 0 0 0 0 -5 5 0 0. 9.
 15 1 1 2 0 0 3.40815 0.346128 -3.08568 4.9411 1.7768 0. 1
 -15 1 1 2 0 0 -3.40815 -0.346128 2.78719 4.76041 1.7768 0. -1
</event>
<event>
 4 80 1 -1 -1 -1
 11 -1 0 0 0 0 0 0 5 5 0 0. 9.
 -11 -1 0 0 0 0 0 0 -5 5 0 0. 9.
 15 1 1 2 0 0 -0.982584 -0.0530371 -4.56881 5 1.7768 0. -1
 -15 1 1 2 0 0 0.982584 0.0530371 4.56881 5 1.7768 0. 1
</event>
<event>
 4 80 1 -1 -1 -1
 11 -1 0 0 0 0 0 0 4.45698 4.45698 0 0. 9.
 -11 -1 0 0 0 0 0 0 -3.01536 3.01536 0 0. 9.
 15 1 1 2 0 0 -0.353656 -2.91037 -0.602625 3.48084 1.7768 0. 1
 -15 1 1 2 0 0 0.353656 2.91037 2.04425 3.99149 1.7768 0. -1
</event>
<event>
 4 80 1 -1 -1 -1
 11 -1 0 0 0 0 0 0 4.99997 4.99997 0 0. 9.
 -11 -1 0 0 0 0 0 0 -5 5 0 0. 9.
 15 1 1 2 0 0 1.65662 -0.432148 -4.34869 5 1.7768 0. 1
 -15 1 1 2 0 0 -1.65662 0.432148 4.34866 4.99997 1.7768 0. -1
</event>
<event>
 4 80 1 -1 -1 -1
 11 -1 0 0 0 0 0 0 5 5 0 0. 9.
 -11 -1 0 0 0 0 0 0 -5 5 0 0. 9.
 15 1 1 2 0 0 -1.37102 4.35155 -1.01322 5 1.7768 0. 1
 -15 1 1 2 0 0 1.37102 -4.35155 1.01321 5 1.7768 0. -1
</event>
<event>
 4 80 1 -1 -1 -1
 11 -1 0 0 0 0 0 0 4.99999 4.99999 0 0. 9.
 -11 -1 0 0 0 0 0 0 -5 5 0 0. 9.
 15 1 1 2 0 0 1.00662 -2.75555 -3.63812 5 1.7768 0. -1
 -15 1 1 2 0 0 -1.00662 2.75555 3.63811 4.99999 1.7768 0. 1
</event>
<event>
 4 80 1 -1 -1 -1
 11 -1 0 0 0 0 0 0 4.99999 4.99999 0 0. 9.
 -11 -1 0 0 0 0 0 0 -5 5 0 0. 9.
 15 1 1 2 0 0 -0.352442 -3.41082 -3.17558 5 1.7768 0. -1
 -15 1 1 2 0 0 0.352442 3.41082 3.17557 4.99999 1.7768 0. 1
</event>
<event>
 4 80 1 -1 -1 -1
 11 -1 0 0 0 0 0 0 5 5 0 0. 9.
 -11 -1 0 0 0 0 0 0 -4.65985 4.65985 0 0. 9.
 15 1 1 2 0 0 -1.58874 3.06829 3.03594 4.93084 1.7768 0. 1
 -15 1 1 2 0 0 1.58874 -3.06829 -2.69579 4.72901 1.7768 0. -1
</event>
<event>
 4 80 1 -1 -1 -1
 11 -1 0 0 0 0 0 0 5 5 0 0. 9.
 -11 -1 0 0 0 0 0 0 -5 5 0 0. 9.
 15 1 1 2 0 0 -1.29715 1.41213 -4.26211 5 1.7768 0. -1
 -15 1 1 2 0 0 1.29715 -1.41213 4.26211 5 1.7768 0. 1
</event>
<event>
 4 80 1 -1 -1 -1
 11 -1 0 0 0 0 0 0 5 5 0 0. 9.
 -11 -1 0 0 0 0 0 0 -4.99997 4.99997 0 0. 9.
 15 1 1 2 0 0 -0.469039 3.26528 3.31061 4.99999 1.7768 0. -1
 -15 1 1 2 0 0 0.469039 -3.26528 -3.31058 4.99997 1.7768 0. 1
</event>
<event>
 4 80 1 -1 -1 -1
 11 -1 0 0 0 0 0 0 4.99999 4.99999 0 0. 9.
 -11 -1 0 0 0 0 0 0 -1.81374 1.81374 0 0. 9.
 15 1 1 2 0 0 0.302569 -1.18956 3.96737 4.51711 1.7768 0. 1
 -15 1 1 2 0 0 -0.302569 1.18956 -0.781114 2.29662 1.7768 0. -1
</event>
<event>
 4 80 1 -1 -1 -1
 11 -1 0 0 0 0 0 0 2.05089 2.05089 0 0. 9.
 -11 -1 0 0 0 0 0 0 -4.99957 4.99957 0 0. 9.
 15 1 1 2 0 0 -0.58555 1.0824 -4.07523 4.61299 1.7768 0. -1
 -15 1 1 2 0 0 0.58555 -1.0824 1.12654 2.43748 1.7768 0. 1
</event>
<event>
 4 80 1 -1 -1 -1
 11 -1 0 0 0 0 0 0 4.99997 4.99997 0 0. 9.
 -11 -1 0 0 0 0 0 0 -4.97951 4.97951 0 0. 9.
 15 1 1 2 0 0 -1.3609 2.04024 -3.95525 4.98161 1.7768 0. 1
 -15 1 1 2 0 0 1.3609 -2.04024 3.97571 4.99787 1.7768 0. -1
</event>
<event>
 4 80 1 -1 -1 -1
 11 -1 0 0 0 0 0 0 4.57952 4.57952 0 0. 9.
 -11 -1 0 0 0 0 0 0 -5 5 0 0. 9.
 15 1 1 2 0 0 -3.4094 -2.83105 -0.528376 4.80372 1.7768 0. -1
 -15 1 1 2 0 0 3.4094 2.83105 0.107891 4.77579 1.7768 0. 1
</event>
<event>
 4 80 1 -1 -1 -1
 11 -1 0 0 0 0 0 0 5 5 0 0. 9.
 -11 -1 0 0 0 0 0 0 -4.99998 4.99998 0 0. 9.
 15 1 1 2 0 0 -3.5155 -2.262 -2.08967 4.99999 1.7768 0. -1
 -15 1 1 2 0 0 3.5155 2.262 2.08969 4.99999 1.7768 0. 1
</event>
<event>
 4 80 1 -1 -1 -1
 11 -1 0 0 0 0 0 0 4.37442 4.37442 0 0. 9.
 -11 -1 0 0 0 0 0 0 -5 5 0 0. 9.
 15 1 1 2 0 0 2.95295 -1.89082 2.22649 4.51776 1.7768 0. -1
 -15 1 1 2 0 0 -2.95295 1.89082 -2.85207 4.85666 1.7768 0. 1
</event>
<event>
 4 80 1 -1 -1 -1
 11 -1 0 0 0 0 0 0 5 5 0 0. 9.
 -11 -1 0 0 0 0 0 0 -5 5 0 0. 9.
 15 1 1 2 0 0 1.06099 -1.22762 4.38287 5 1.7768 0. -1
 -15 1 1 2 0 0 -1.06099 1.22762 -4.38287 5 1.7768 0. 1
</event>
<event>
 4 80 1 -1 -1 -1
 11 -1 0 0 0 0 0 0 4.07898 4.07898 0 0. 9.
 -11 -1 0 0 0 0 0 0 -4.99958 4.99958 0 0. 9.
 15 1 1 2 0 0 2.21592 -3.48871 -0.0658224 4.49928 1.7768 0. 1
 -15 1 1 2 0 0 -2.21592 3.48871 -0.854777 4.57928 1.7768 0. -1
</event>
<event>
 4 80 1 -1 -1 -1
 11 -1 0 0 0 0 0 0 4.34814 4.34814 0 0. 9.
 -11 -1 0 0 0 0 0 0 -5 5 0 0. 9.
 15 1 1 2 0 0 2.17222 -3.26287 -2.12422 4.79946 1.7768 0. 1
 -15 1 1 2 0 0 -2.17222 3.26287 1.47236 4.54867 1.7768 0. -1
</event>
<event>
 4 80 1 -1 -1 -1
 11 -1 0 0 0 0 0 0 4.99786 4.99786 0 0. 9.
 -11 -1 0 0 0 0 0 0 -5 5 0 0. 9.
 15 1 1 2 0 0 -1.52098 0.0270547 4.41679 4.99798 1.7768 0. -1
 -15 1 1 2 0 0 1.52098 -0.0270547 -4.41893 4.99988 1.7768 0. 1
</event>
<event>
 4 80 1 -1 -1 -1
 11 -1 0 0 0 0 0 0 4.99994 4.99994 0 0. 9.
 -11 -1 0 0 0 0 0 0 -5 5 0 0. 9.
 15 1 1 2 0 0 1.57707 0.419293 4.37936 4.99995 1.7768 0. 1
 -15 1 1 2 0 0 -1.57707 -0.419293 -4.37941 5 1.7768 0. -1
</event>
<event>
 4 80 1 -1 -1 -1
 11 -1 0 0 0 0 0 0 4.93116 4.93116 0 0. 9.
 -11 -1 0 0 0 0 0 0 -5 5 0 0. 9.
 15 1 1 2 0 0 1.06048 0.30497 -4.53791 4.9968 1.7768 0. -1
 -15 1 1 2 0 0 -1.06048 -0.30497 4.46907 4.93436 1.7768 0. 1
</event>
<event>
 4 80 1 -1 -1 -1
 11 -1 0 0 0 0 0 0 4.45492 4.45492 0 0. 9.
 -11 -1 0 0 0 0 0 0 -4.29494 4.29494 0 0. 9.
 15 1 1 2 0 0 0.48013 -0.964548 3.92966 4.44531 1.7768 0. 1
 -15 1 1 2 0 0 -0.48013 0.964548 -3.76968 4.30455 1.7768 0. -1
</event>
<event>
 4 80 1 -1 -1 -1
 11 -1 0 0 0 0 0 0 5 5 0 0. 9.
 -11 -1 0 0 0 0 0 0 -4.99999 4.99999 0 0. 9.
 15 1 1 2 0 0 -0.889331 4.5598 -0.509457 4.99999 1.7768 0. 1
 -15 1 1 2 0 0 0.889331 -4.5598 0.509466 5 1.7768 0. -1
</event>
<event>
 4 80 1 -1 -1 -1
 11 -1 0 0 0 0 0 0 5 5 0 0. 9.
 -11 -1 0 0 0 0 0 0 -5 5 0 0. 9.
 15 1 1 2 0 0 -1.89059 1.03181 -4.14769 5 1.7768 0. -1
 -15 1 1 2 0 0 1.89059 -1.03181 4.14769 5 1.7768 0. 1
</event>
<event>
 4 80 1 -1 -1 -1
 11 -1 0 0 0 0 0 0 5 5 0 0. 9.
 -11 -1 0 0 0 0 0 0 -3.12811 3.12811 0 0. 9.
 15 1 1 2 0 0 -0.425921 -1.44872 -2.34644 3.30813 1.7768 0. -1
 -15 1 1 2 0 0 0.425921 1.44872 4.21833 4.81998 1.7768 0. 1
</event>
<event>
 4 80 1 -1 -1 -1
 11 -1 0 0 0 0 0 0 5 5 0 0. 9.
 -11 -1 0 0 0 0 0 0 -5 5 0 0. 9.
 15 1 1 2 0 0 1.73026 4.04731 1.57091 5 1.7768 0. -1
 -15 1 1 2 0 0 -1.73026 -4.04731 -1.57091 5 1.7768 0. 1
</event>
<event>
 4 80 1 -1 -1 -1
 11 -1 0 0 0 0 0 0 5 5 0 0. 9.
 -11 -1 0 0 0 0 0 0 -5 5 0 0. 9.
 15 1 1 2 0 0 -3.86967 2.44145 0.952497 5 1.7768 0. -1
 -15 1 1 2 0 0 3.86967 -2.44145 -0.952497 5 1.7768 0. 1
</event>
<event>
 4 80 1 -1 -1 -1
 11 -1 0 0 0 0 0 0 4.86381 4.86381 0 0. 9.
 -11 -1 0 0 0 0 0 0 -5 5 0 0. 9.
 15 1 1 2 0 0 -1.60803 -0.781448 -4.307 4.99043 1.7768 0. -1
 -15 1 1 2 0 0 1.60803 0.781448 4.17081 4.87337 1.7768 0. 1
</event>
<event>
 4 80 1 -1 -1 -1
 11 -1 0 0 0 0 0 0 5 5 0 0. 9.
 -11 -1 0 0 0 0 0 0 -5 5 0 0. 9.
 15 1 1 2 0 0 2.27781 3.42352 2.22112 5 1.7768 0. -1
 -15 1 1 2 0 0 -2.27781 -3.42352 -2.22112 5 1.7768 0. 1
</event>
<event>
 4 80 1 -1 -1 -1
 11 -1 0 0 0 0 0 0 2.07992 2.07992 0 0. 9.
 -11 -1 0 0 0 0 0 0 -4.96981 4.96981 0 0. 9.
 15 1 1 2 0 0 -1.92448 1.75718 -2.12767 3.80474 1.7768 0. 1
 -15 1 1 2 0 0 1.92448 -1.75718 -0.762214 3.245 1.7768 0. -1
</event>
<event>
 4 80 1 -1 -1 -1
 11 -1 0 0 0 0 0 0 4.99986 4.99986 0 0. 9.
 -11 -1 0 0 0 0 0 0 -4.99986 4.99986 0 0. 9.
 15 1 1 2 0 0 -0.761745 3.64206 2.82773 4.99986 1.7768 0. -1
 -15 1 1 2 0 0 0.761745 -3.64206 -2.82772 4.99986 1.7768 0. 1
</event>
<event>
 4 80 1 -1 -1 -1
 11 -1 0 0 0 0 0 0 5 5 0 0. 9.
 -11 -1 0 0 0 0 0 0 -4.99442 4.99442 0 0. 9.
 15 1 1 2 0 0 1.29977 0.550948 4.45492 4.99969 1.7768 0. 1
 -15 1 1 2 0 0 -1.29977 -0.550948 -4.44934 4.99473 1.7768 0. -1
</event>
<event>
 4 80 1 -1 -1 -1
 11 -1 0 0 0 0 0 0 1.50374 1.50374 0 0. 9.
 -11 -1 0 0 0 0 0 0 -5 5 0 0. 9.
 15 1 1 2 0 0 -1.63015 1.28807 -1.49808 3.11745 1.7768 0. -1
 -15 1 1 2 0 0 1.63015 -1.28807 -1.99817 3.38629 1.7768 0. 1
</event>
<event>
 4 80 1 -1 -1 -1
 11 -1 0 0 0 0 0 0 4.99146 4.99146 0 0. 9.
 -11 -1 0 0 0 0 0 0 -5 5 0 0. 9.
 15 1 1 2 0 0 2.92484 -3.54962 0.798885 4.99504 1.7768 0. -1
 -15 1 1 2 0 0 -2.92484 3.54962 -0.807425 4.99642 1.7768 0. 1
</event>
<event>
 4 80 1 -1 -1 -1
 11 -1 0 0 0 0 0 0 4.93865 4.93865 0 0. 9.
 -11 -1 0 0 0 0 0 0 -5 5 0 0. 9.
 15 1 1 2 0 0 0.545507 3.8437 2.5118 4.95363 1.7768 0. 1
 -15 1 1 2 0 0 -0.545507 -3.8437 -2.57314 4.98502 1.7768 0. -1
</event>
<event>
 4 80 1 -1 -1 -1
 11 -1 0 0 0 0 0 0 4.89893 4.89893 0 0. 9.
 -11 -1 0 0 0 0 0 0 -4.97336 4.97336 0 0. 9.
 15 1 1 2 0 0 2.71022 -2.93489 -2.32804 4.95342 1.7768 0. -1
 -15 1 1 2 0 0 -2.71022 2.93489 2.25361 4.91888 1.7768 0. 1
</event>
<event>
 4 80 1 -1 -1 -1
 11 -1 0 0 0 0 0 0 4.9999 4.9999 0 0. 9.
 -11 -1 0 0 0 0 0 0 -4.99998 4.99998 0 0. 9.
 15 1 1 2 0 0 -0.0354739 -1.89187 4.27328 4.9999 1.7768 0. -1
 -15 1 1 2 0 0 0.0354739 1.89187 -4.27336 4.99997 1.7768 0. 1
</event>
<event>
 4 80 1 -1 -1 -1
 11 -1 0 0 0 0 0 0 4.99987 4.99987 0 0. 9.
 -11 -1 0 0 0 0 0 0 -5 5 0 0. 9.
 15 1 1 2 0 0 3.57809 2.99661 0.243317 4.99993 1.7768 0. -1
 -15 1 1 2 0 0 -3.57809 -2.99661 -0.243448 4.99994 1.7768 0. 1
</event>
<event>
 4 80 1 -1 -1 -1
 11 -1 0 0 0 0 0 0 4.83651 4.83651 0 0. 9.
 -11 -1 0 0 0 0 0 0 -5 5 0 0. 9.
 15 1 1 2 0 0 0.488797 -1.08616 4.34675 4.84465 1.7768 0. -1
 -15 1 1 2 0 0 -0.488797 1.08616 -4.51024 4.99186 1.7768 0. 1
</event>
<event>
 4 80 1 -1 -1 -1
 11 -1 0 0 0 0 0 0 5 5 0 0. 9.
 -11 -1 0 0 0 0 0 0 -5 5 0 0. 9.
 15 1 1 2 0 0 3.10697 -2.90757 1.93263 5 1.7768 0. 1
 -15 1 1 2 0 0 -3.10697 2.90757 -1.93263 5 1.7768 0. -1
</event>
<event>
 4 80 1 -1 -1 -1
 11 -1 0 0 0 0 0 0 4.97184 4.97184 0 0. 9.
 -11 -1 0 0 0 0 0 0 -5 5 0 0. 9.
 15 1 1 2 0 0 -4.47172 -1.22918 -0.454917 4.98716 1.7768 0. 1
 -15 1 1 2 0 0 4.47172 1.22918 0.426753 4.98467 1.7768 0. -1
</event>
<event>
 4 80 1 -1 -1 -1
 11 -1 0 0 0 0 0 0 5 5 0 0. 9.
 -11 -1 0 0 0 0 0 0 -4.99608 4.99608 0 0. 9.
 15 1 1 2 0 0 0.90754 3.48931 -2.96852 4.99688 1.7768 0. 1
 -15 1 1 2 0 0 -0.90754 -3.48931 2.97244 4.9992 1.7768 0. -1
</event>
<event>
 4 80 1 -1 -1 -1
 11 -1 0 0 0 0 0 0 5 5 0 0. 9.
 -11 -1 0 0 0 0 0 0 -5 5 0 0. 9.
 15 1 1 2 0 0 1.04899 0.312062 4.54362 5 1.7768 0. -1
 -15 1 1 2 0 0 -1.04899 -0.312062 -4.54362 5 1.7768 0. 1
</event>
<event>
 4 80 1 -1 -1 -1
 11 -1 0 0 0 0 0 0 5 5 0 0. 9.
 -11 -1 0 0 0 0 0 0 -0.943182 0.943182 0 0. 9.
 15 1 1 2 0 0 -0.416189 0.581109 3.42876 3.92747 1.7768 0. -1
 -15 1 1 2 0 0 0.416189 -0.581109 0.628056 2.01571 1.7768 0. 1
</event>
<event>
 4 80 1 -1 -1 -1
 11 -1 0 0 0 0 0 0 4.99927 4.99927 0 0. 9.
 -11 -1 0 0 0 0 0 0 -5 5 0 0. 9.
 15 1 1 2 0 0 0.909793 -0.0806614 -4.58342 4.99997 1.7768 0. 1
 -15 1 1 2 0 0 -0.909793 0.0806614 4.58269 4.9993 1.7768 0. -1
</event>
<event>
 4 80 1 -1 -1 -1
 11 -1 0 0 0 0 0 0 4.08016 4.08016 0 0. 9.
 -11 -1 0 0 0 0 0 0 -5 5 0 0. 9.
 15 1 1 2 0 0 3.73423 0.652962 -2.16345 4.71265 1.7768 0. 1
 -15 1 1 2 0 0 -3.73423 -0.652962 1.24361 4.36751 1.7768 0. -1
</event>
<event>
 4 80 1 -1 -1 -1
 11 -1 0 0 0 0 0 0 5 5 0 0. 9.
 -11 -1 0 0 0 0 0 0 -4.99892 4.99892 0 0. 9.
 15 1 1 2 0 0 0.101292 -4.32263 -1.77188 4.99927 1.7768 0. 1
 -15 1 1 2 0 0 -0.101292 4.32263 1.77295 4.99965 1.7768 0. -1
</event>
<event>
 4 80 1 -1 -1 -1
 11 -1 0 0 0 0 0 0 5 5 0 0. 9.
 -11 -1 0 0 0 0 0 0 -5 5 0 0. 9.
 15 1 1 2 0 0 1.30494 3.52105 -2.78237 5 1.7768 0. 1
 -15 1 1 2 0 0 -1.30494 -3.52105 2.78237 5 1.7768 0. -1
</event>
<event>
 4 80 1 -1 -1 -1
 11 -1 0 0 0 0 0 0 5 5 0 0. 9.
 -11 -1 0 0 0 0 0 0 -5 5 0 0. 9.
 15 1 1 2 0 0 -2.29931 2.86019 2.89392 5 1.7768 0. 1
 -15 1 1 2 0 0 2.29931 -2.86019 -2.89392 5 1.7768 0. -1
</event>
<event>
 4 80 1 -1 -1 -1
 11 -1 0 0 0 0 0 0 4.99992 4.99992 0 0. 9.
 -11 -1 0 0 0 0 0 0 -5 5 0 0. 9.
 15 1 1 2 0 0 4.5185 -0.609079 1.02662 4.99995 1.7768 0. -1
 -15 1 1 2 0 0 -4.5185 0.609079 -1.0267 4.99997 1.7768 0. 1
</event>
<event>
 4 80 1 -1 -1 -1
 11 -1 0 0 0 0 0 0 5 5 0 0. 9.
 -11 -1 0 0 0 0 0 0 -4.95175 4.95175 0 0. 9.
 15 1 1 2 0 0 -4.16138 1.5766 1.36514 4.98238 1.7768 0. 1
 -15 1 1 2 0 0 4.16138 -1.5766 -1.31689 4.96937 1.7768 0. -1
</event>
<event>
 4 80 1 -1 -1 -1
 11 -1 0 0 0 0 0 0 5 5 0 0. 9.
 -11 -1 0 0 0 0 0 0 -4.99998 4.99998 0 0. 9.
 15 1 1 2 0 0 -3.86736 2.14951 1.50512 4.99999 1.7768 0. 1
 -15 1 1 2 0 0 3.86736 -2.14951 -1.5051 4.99999 1.7768 0. -1
</event>
<event>
 4 80 1 -1 -1 -1
 11 -1 0 0 0 0 0 0 5 5 0 0. 9.
 -11 -1 0 0 0 0 0 0 -4.88899 4.88899 0 0. 9.
 15 1 1 2 0 0 3.44854 -1.41096 -2.6657 4.91395 1.7768 0. -1
 -15 1 1 2 0 0 -3.44854 1.41096 2.7767 4.97504 1.7768 0. 1
</event>
<event>
 4 80 1 -1 -1 -1
 11 -1 0 0 0 0 0 0 4.99994 4.99994 0 0. 9.
 -11 -1 0 0 0 0 0 0 -5 5 0 0. 9.
 15 1 1 2 0 0 -0.639923 -2.65383 -3.7934 4.99999 1.7768 0. -1
 -15 1 1 2 0 0 0.639923 2.65383 3.79334 4.99994 1.7768 0. 1
</event>
<event>
 4 80 1 -1 -1 -1
 11 -1 0 0 0 0 0 0 5 5 0 0. 9.
 -11 -1 0 0 0 0 0 0 -2.98983 2.98983 0 0. 9.
 15 1 1 2 0 0 -0.724261 -1.02104 4.30891 4.82613 1.7768 0. 1
 -15 1 1 2 0 0 0.724261 1.02104 -2.29874 3.1637 1.7768 0. -1
</event>
<event>
 4 80 1 -1 -1 -1
 11 -1 0 0 0 0 0 0 4.90644 4.90644 0 0. 9.
 -11 -1 0 0 0 0 0 0 -5 5 0 0. 9.
 15 1 1 2 0 0 1.05325 1.11729 -4.4078 4.9944 1.7768 0. -1
 -15 1 1 2 0 0 -1.05325 -1.11729 4.31425 4.91204 1.7768 0. 1
</event>
<event>
 4 80 1 -1 -1 -1
 11 -1 0 0 0 0 0 0 5 5 0 0. 9.
 -11 -1 0 0 0 0 0 0 -5 5 0 0. 9.
 15 1 1 2 0 0 0.718448 3.97831 2.34503 5 1.7768 0. -1
 -15 1 1 2 0 0 -0.718448 -3.97831 -2.34503 5 1.7768 0. 1
</event>
<event>
 4 80 1 -1 -1 -1
 11 -1 0 0 0 0 0 0 5 5 0 0. 9.
 -11 -1 0 0 0 0 0 0 -5 5 0 0. 9.
 15 1 1 2 0 0 -3.90102 -0.340688 2.55113 5 1.7768 0. -1
 -15 1 1 2 0 0 3.90102 0.340688 -2.55113 5 1.7768 0. 1
</event>
<event>
 4 80 1 -1 -1 -1
 11 -1 0 0 0 0 0 0 4.99482 4.99482 0 0. 9.
 -11 -1 0 0 0 0 0 0 -5 5 0 0. 9.
 15 1 1 2 0 0 1.49067 3.11032 -3.15222 4.99904 1.7768 0. -1
 -15 1 1 2 0 0 -1.49067 -3.11032 3.14704 4.99577 1.7768 0. 1
</event>
<event>
 4 80 1 -1 -1 -1
 11 -1 0 0 0 0 0 0 1.86795 1.86795 0 0. 9.
 -11 -1 0 0 0 0 0 0 -5 5 0 0. 9.
 15 1 1 2 0 0 -0.714176 1.88327 -3.2041 4.181 1.7768 0. -1
 -15 1 1 2 0 0 0.714176 -1.88327 0.0720492 2.68695 1.7768 0. 1
</event>
<event>
 4 80 1 -1 -1 -1
 11 -1 0 0 0 0 0 0 4.9987 4.9987 0 0. 9.
 -11 -1 0 0 0 0 0 0 -4.89552 4.89552 0 0. 9.
 15 1 1 2 0 0 3.80127 1.85835 1.89841 4.96637 1.7768 0. 1
 -15 1 1 2 0 0 -3.80127 -1.85835 -1.79523 4.92785 1.7768 0. -1
</event>
<event>
 4 80 1 -1 -1 -1
 11 -1 0 0 0 0 0 0 4.99985 4.99985 0 0. 9.
 -11 -1 0 0 0 0 0 0 -5 5 0 0. 9.
 15 1 1 2 0 0 2.397 -3.54122 -1.88572 4.99995 1.7768 0. 1
 -15 1 1 2 0 0 -2.397 3.54122 1.88557 4.99989 1.7768 0. -1
</event>
<event>
 4 80 1 -1 -1 -1
 11 -1 0 0 0 0 0 0 3.5486 3.5486 0 0. 9.
 -11 -1 0 0 0 0 0 0 -4.99796 4.99796 0 0. 9.
 15 1 1 2 0 0 1.81623 -2.13611 1.905 3.82733 1.7768 0. -1
 -15 1 1 2 0 0 -1.81623 2.13611 -3.35435 4.71923 1.7768 0. 1
</event>
<event>
 4 80 1 -1 -1 -1
 11 -1 0 0 0 0 0 0 5 5 0 0. 9.
 -11 -1 0 0 0 0 0 0 -5 5 0 0. 9.
 15 1 1 2 0 0 3.63245 1.36547 2.60443 5 1.7768 0. -1
 -15 1 1 2 0 0 -3.63245 -1.36547 -2.60443 5 1.7768 0. 1
</event>
<event>
 4 80 1 -1 -1 -1
 11 -1 0 0 0 0 0 0 4.32307 4.32307 0 0. 9.
 -11 -1 0 0 0 0 0 0 -5 5 0 0. 9.
 15 1 1 2 0 0 -4.17314 0.854479 0.221894 4.62085 1.7768 0. 1
 -15 1 1 2 0 0 4.17314 -0.854479 -0.898827 4.70222 1.7768 0. -1
</event>
<event>
 4 80 1 -1 -1 -1
 11 -1 0 0 0 0 0 0 4.43977 4.43977 0 0. 9.
 -11 -1 0 0 0 0 0 0 -4.9901 4.9901 0 0. 9.
 15 1 1 2 0 0 0.404179 -4.15342 0.985121 4.64139 1.7768 0. 1
 -15 1 1 2 0 0 -0.404179 4.15342 -1.53545 4.78849 1.7768 0. -1
</event>
<event>
 4 80 1 -1 -1 -1
 11 -1 0 0 0 0 0 0 5 5 0 0. 9.
 -11 -1 0 0 0 0 0 0 -5 5 0 0. 9.
 15 1 1 2 0 0 1.04513 -4.36265 -1.31045 5 1.7768 0. 1
 -15 1 1 2 0 0 -1.04513 4.36265 1.31045 5 1.7768 0. -1
</event>
<event>
 4 80 1 -1 -1 -1
 11 -1 0 0 0 0 0 0 5 5 0 0. 9.
 -11 -1 0 0 0 0 0 0 -2.14442 2.14442 0 0. 9.
 15 1 1 2 0 0 0.277412 -0.308774 4.39385 4.75773 1.7768 0. 1
 -15 1 1 2 0 0 -0.277412 0.308774 -1.53827 2.38669 1.7768 0. -1
</event>
<event>
 4 80 1 -1 -1 -1
 11 -1 0 0 0 0 0 0 4.99999 4.99999 0 0. 9.
 -11 -1 0 0 0 0 0 0 -5 5 0 0. 9.
 15 1 1 2 0 0 3.34033 -0.815165 -3.16543 5 1.7768 0. 1
 -15 1 1 2 0 0 -3.34033 0.815165 3.16541 4.99999 1.7768 0. -1
</event>
<event>
 4 80 1 -1 -1 -1
 11 -1 0 0 0 0 0 0 5 5 0 0. 9.
 -11 -1 0 0 0 0 0 0 -4.13783 4.13783 0 0. 9.
 15 1 1 2 0 0 -1.84028 0.580444 4.16363 4.92109 1.7768 0. -1
 -15 1 1 2 0 0 1.84028 -0.580444 -3.30147 4.21675 1.7768 0. 1
</event>
<event>
 4 80 1 -1 -1 -1
 11 -1 0 0 0 0 0 0 4.77636 4.77636 0 0. 9.
 -11 -1 0 0 0 0 0 0 -5 5 0 0. 9.
 15 1 1 2 0 0 -4.50142 0.363146 0.462299 4.87505 1.7768 0. -1
 -15 1 1 2 0 0 4.50142 -0.363146 -0.68594 4.90131 1.7768 0. 1
</event>
<event>
 4 80 1 -1 -1 -1
 11 -1 0 0 0 0 0 0 5 5 0 0. 9.
 -11 -1 0 0 0 0 0 0 -4.96587 4.96587 0 0. 9.
 15 1 1 2 0 0 0.518474 -1.83364 4.26451 4.99748 1.7768 0. -1
 -15 1 1 2 0 0 -0.518474 1.83364 -4.23038 4.96839 1.7768 0. 1
</event>
<event>
 4 80 1 -1 -1 -1
 11 -1 0 0 0 0 0 0 4.93706 4.93706 0 0. 9.
 -11 -1 0 0 0 0 0 0 -4.99561 4.99561 0 0. 9.
 15 1 1 2 0 0 4.55082 -0.872938 -0.213406 4.96742 1.7768 0. -1
 -15 1 1 2 0 0 -4.55082 0.872938 0.154861 4.96525 1.7768 0. 1
</event>
<event>
 4 80 1 -1 -1 -1
 11 -1 0 0 0 0 0 0 5 5 0 0. 9.
 -11 -1 0 0 0 0 0 0 -4.99999 4.99999 0 0. 9.
 15 1 1 2 0 0 1.12803 -2.89356 3.49243 5 1.7768 0. 1
 -15 1 1 2 0 0 -1.12803 2.89356 -3.49243 4.99999 1.7768 0. -1
</event>
<event>
 4 80 1 -1 -1 -1
 11 -1 0 0 0 0 0 0 5 5 0 0. 9.
 -11 -1 0 0 0 0 0 0 -4.82935 4.82935 0 0. 9.
 15 1 1 2 0 0 -2.53923 3.23011 2.11237 4.94987 1.7768 0. 1
 -15 1 1 2 0 0 2.53923 -3.23011 -1.94172 4.87948 1.7768 0. -1
</event>
<event>
 4 80 1 -1 -1 -1
 11 -1 0 0 0 0 0 0 5 5 0 0. 9.
 -11 -1 0 0 0 0 0 0 -5 5 0 0. 9.
 15 1 1 2 0 0 0.673192 4.16332 2.01391 5 1.7768 0. -1
 -15 1 1 2 0 0 -0.673192 -4.16332 -2.01391 5 1.7768 0. 1
</event>
<event>
 4 80 1 -1 -1 -1
 11 -1 0 0 0 0 0 0 5 5 0 0. 9.
 -11 -1 0 0 0 0 0 0 -5 5 0 0. 9.
 15 1 1 2 0 0 1.2889 -3.31784 3.02869 5 1.7768 0. -1
 -15 1 1 2 0 0 -1.2889 3.31784 -3.02869 5 1.7768 0. 1
</event>
<event>
 4 80 1 -1 -1 -1
 11 -1 0 0 0 0 0 0 5 5 0 0. 9.
 -11 -1 0 0 0 0 0 0 -4.99998 4.99998 0 0. 9.
 15 1 1 2 0 0 2.15556 0.0508104 4.14647 5 1.7768 0. -1
 -15 1 1 2 0 0 -2.15556 -0.0508104 -4.14645 4.99998 1.7768 0. 1
</event>
<event>
 4 80 1 -1 -1 -1
 11 -1 0 0 0 0 0 0 5 5 0 0. 9.
 -11 -1 0 0 0 0 0 0 -4.99996 4.99996 0 0. 9.
 15 1 1 2 0 0 -3.14609 -0.888362 -3.33989 4.99997 1.7768 0. -1
 -15 1 1 2 0 0 3.14609 0.888362 3.33993 4.99999 1.7768 0. 1
</event>
<event>
 4 80 1 -1 -1 -1
 11 -1 0 0 0 0 0 0 4.99992 4.99992 0 0. 9.
 -11 -1 0 0 0 0 0 0 -4.99932 4.99932 0 0. 9.
 15 1 1 2 0 0 -1.48633 4.23598 1.29868 4.9997 1.7768 0. -1
 -15 1 1 2 0 0 1.48633 -4.23598 -1.29808 4.99954 1.7768 0. 1
</event>
<event>
 4 80 1 -1 -1 -1
 11 -1 0 0 0 0 0 0 3.56039 3.56039 0 0. 9.
 -11 -1 0 0 0 0 0 0 -5 5 0 0. 9.
 15 1 1 2 0 0 -2.48074 2.90223 -0.456795 4.23596 1.7768 0. -1
 -15 1 1 2 0 0 2.48074 -2.90223 -0.982814 4.32443 1.7768 0. 1
</event>
<event>
 4 80 1 -1 -1 -1
 11 -1 0 0 0 0 0 0 4.74977 4.74977 0 0. 9.
 -11 -1 0 0 0 0 0 0 -4.91063 4.91063 0 0. 9.
 15 1 1 2 0 0 0.409046 -0.383348 -4.53665 4.9044 1.7768 0. -1
 -15 1 1 2 0 0 -0.409046 0.383348 4.37578 4.756 1.7768 0. 1
</event>
<event>
 4 80 1 -1 -1 -1
 11 -1 0 0 0 0 0 0 5 5 0 0. 9.
 -11 -1 0 0 0 0 0 0 -5 5 0 0. 9.
 15 1 1 2 0 0 0.810462 -2.18899 -4.04892 5 1.7768 0. 1
 -15 1 1 2 0 0 -0.810462 2.18899 4.04892 5 1.7768 0. -1
</event>
<event>
 4 80 1 -1 -1 -1
 11 -1 0 0 0 0 0 0 5 5 0 0. 9.
 -11 -1 0 0 0 0 0 0 -5 5 0 0. 9.
 15 1 1 2 0 0 0.497347 3.91771 -2.4993 5 1.7768 0. -1
 -15 1 1 2 0 0 -0.497347 -3.91771 2.4993 5 1.7768 0. 1
</event>
<event>
 4 80 1 -1 -1 -1
 11 -1 0 0 0 0 0 0 5 5 0 0. 9.
 -11 -1 0 0 0 0 0 0 -5 5 0 0. 9.
 15 1 1 2 0 0 0.524679 -4.6382 -0.232577 5 1.7768 0. 1
 -15 1 1 2 0 0 -0.524679 4.6382 0.232577 5 1.7768 0. -1
</event>
<event>
 4 80 1 -1 -1 -1
 11 -1 0 0 0 0 0 0 4.97149 4.97149 0 0. 9.
 -11 -1 0 0 0 0 0 0 -4.81817 4.81817 0 0. 9.
 15 1 1 2 0 0 1.05203 0.69361 4.45987 4.96347 1.7768 0. 1
 -15 1 1 2 0 0 -1.05203 -0.69361 -4.30655 4.82618 1.7768 0. -1
</event>
<event>
 4 80 1 -1 -1 -1
 11 -1 0 0 0 0 0 0 5 5 0 0. 9.
 -11 -1 0 0 0 0 0 0 -5 5 0 0. 9.
 15 1 1 2 0 0 -0.43341 1.14548 4.51025 5 1.7768 0. 1
 -15 1 1 2 0 0 0.43341 -1.14548 -4.51024 5 1.7768 0. -1
</event>
<event>
 4 80 1 -1 -1 -1
 11 -1 0 0 0 0 0 0 4.99696 4.99696 0 0. 9.
 -11 -1 0 0 0 0 0 0 -5 5 0 0. 9.
 15 1 1 2 0 0 4.53226 0.870135 -0.728502 4.9987 1.7768 0. 1
 -15 1 1 2 0 0 -4.53226 -0.870135 0.725457 4.99826 1.7768 0. -1
</event>
<event>
 4 80 1 -1 -1 -1
 11 -1 0 0 0 0 0 0 5 5 0 0. 9.
 -11 -1 0 0 0 0 0 0 -4.99995 4.99995 0 0. 9.
 15 1 1 2 0 0 1.27162 3.46621 2.8654 4.99999 1.7768 0. -1
 -15 1 1 2 0 0 -1.27162 -3.46621 -2.86535 4.99996 1.7768 0. 1
</event>
<event>
 4 80 1 -1 -1 -1
 11 -1 0 0 0 0 0 0 5 5 0 0. 9.
 -11 -1 0 0 0 0 0 0 -4.98205 4.98205 0 0. 9.
 15 1 1 2 0 0 -4.00504 -2.29396 -0.661775 4.98982 1.7768 0. 1
 -15 1 1 2 0 0 4.00504 2.29396 0.679721 4.99223 1.7768 0. -1
</event>
<event>
 4 80 1 -1 -1 -1
 11 -1 0 0 0 0 0 0 5 5 0 0. 9.
 -11 -1 0 0 0 0 0 0 -5 5 0 0. 9.
 15 1 1 2 0 0 3.72545 2.64259 0.989973 5 1.7768 0. -1
 -15 1 1 2 0 0 -3.72545 -2.64259 -0.989973 5 1.7768 0. 1
</event>
<event>
 4 80 1 -1 -1 -1
 11 -1 0 0 0 0 0 0 3.79921 3.79921 0 0. 9.
 -11 -1 0 0 0 0 0 0 -5 5 0 0. 9.
 15 1 1 2 0 0 2.13114 3.19396 -1.65677 4.54376 1.7768 0. -1
 -15 1 1 2 0 0 -2.13114 -3.19396 0.45598 4.25544 1.7768 0. 1
</event>
<event>
 4 80 1 -1 -1 -1
 11 -1 0 0 0 0 0 0 5 5 0 0. 9.
 -11 -1 0 0 0 0 0 0 -4.99976 4.99976 0 0. 9.
 15 1 1 2 0 0 0.552831 -3.89231 -2.52681 4.99982 1.7768 0. -1
 -15 1 1 2 0 0 -0.552831 3.89231 2.52704 4.99994 1.7768 0. 1
</event>
<event>
 4 80 1 -1 -1 -1
 11 -1 0 0 0 0 0 0 5 5 0 0. 9.
 -11 -1 0 0 0 0 0 0 -5 5 0 0. 9.
 15 1 1 2 0 0 0.358082 1.39786 -4.44523 5 1.7768 0. -1
 -15 1 1 2 0 0 -0.358082 -1.39786 4.44523 5 1.7768 0. 1
</event>
<event>
 4 80 1 -1 -1 -1
 11 -1 0 0 0 0 0 0 4.49041 4.49041 0 0. 9.
 -11 -1 0 0 0 0 0 0 -4.10029 4.10029 0 0. 9.
 15 1 1 2 0 0 3.45901 1.17398 1.57898 4.3582 1.7768 0. 1
 -15 1 1 2 0 0 -3.45901 -1.17398 -1.18886 4.2325 1.7768 0. -1
</event>
<event>
 4 80 1 -1 -1 -1
 11 -1 0 0 0 0 0 0 4.22097 4.22097 0 0. 9.
 -11 -1 0 0 0 0 0 0 -4.99997 4.99997 0 0. 9.
 15 1 1 2 0 0 1.54096 2.66649 2.52994 4.36383 1.7768 0. -1
 -15 1 1 2 0 0 -1.54096 -2.66649 -3.30894 4.85711 1.7768 0. 1
</event>
<event>
 4 80 1 -1 -1 -1
 11 -1 0 0 0 0 0 0 4.83224 4.83224 0 0. 9.
 -11 -1 0 0 0 0 0 0 -5 5 0 0. 9.
 15 1 1 2 0 0 3.01365 -3.43628 -0.420659 4.92187 1.7768 0. -1
 -15 1 1 2 0 0 -3.01365 3.43628 0.252903 4.91038 1.7768 0. 1
</event>
<event>
 4 80 1 -1 -1 -1
 11 -1 0 0 0 0 0 0 5 5 0 0. 9.
 -11 -1 0 0 0 0 0 0 -4.99616 4.99616 0 0. 9.
 15 1 1 2 0 0 -0.739885 4.24157 -1.81046 4.99738 1.7768 0. 1
 -15 1 1 2 0 0 0.739885 -4.24157 1.81429 4.99877 1.7768 0. -1
</event>
<event>
 4 80 1 -1 -1 -1
 11 -1 0 0 0 0 0 0 4.99921 4.99921 0 0. 9.
 -11 -1 0 0 0 0 0 0 -5 5 0 0. 9.
 15 1 1 2 0 0 2.47436 3.40218 -2.03535 4.99977 1.7768 0. -1
 -15 1 1 2 0 0 -2.47436 -3.40218 2.03456 4.99945 1.7768 0. 1
</event>
<event>
 4 80 1 -1 -1 -1
 11 -1 0 0 0 0 0 0 4.99999 4.99999 0 0. 9.
 -11 -1 0 0 0 0 0 0 -4.95649 4.95649 0 0. 9.
 15 1 1 2 0 0 3.27966 2.12244 2.54442 4.98926 1.7768 0. 1
 -15 1 1 2 0 0 -3.27966 -2.12244 -2.50092 4.96722 1.7768 0. -1
</event>
<event>
 4 80 1 -1 -1 -1
 11 -1 0 0 0 0 0 0 4.99988 4.99988 0 0. 9.
 -11 -1 0 0 0 0 0 0 -4.99991 4.99991 0 0. 9.
 15 1 1 2 0 0 -0.576406 -2.30227 -4.026 4.99991 1.7768 0. 1
 -15 1 1 2 0 0 0.576406 2.30227 4.02596 4.99988 1.7768 0. -1
</event>
<event>
 4 80 1 -1 -1 -1
 11 -1 0 0 0 0 0 0 4.94156 4.94156 0 0. 9.
 -11 -1 0 0 0 0 0 0 -4.99996 4.99996 0 0. 9.
 15 1 1 2 0 0 0.722507 -4.09517 -2.09259 4.98288 1.7768 0. 1
 -15 1 1 2 0 0 -0.722507 4.09517 2.03419 4.95864 1.7768 0. -1
</event>
<event>
 4 80 1 -1 -1 -1
 11 -1 0 0 0 0 0 0 4.84575 4.84575 0 0. 9.
 -11 -1 0 0 0 0 0 0 -5 5 0 0. 9.
 15 1 1 2 0 0 0.0576583 2.99778 -3.55333 4.97734 1.7768 0. -1
 -15 1 1 2 0 0 -0.0576583 -2.99778 3.39908 4.86842 1.7768 0. 1
</event>
<event>
 4 80 1 -1 -1 -1
 11 -1 0 0 0 0 0 0 4.82267 4.82267 0 0. 9.
 -11 -1 0 0 0 0 0 0 -5 5 0 0. 9.
 15 1 1 2 0 0 -3.83464 -2.31758 -1.02689 4.92827 1.7768 0. -1
 -15 1 1 2 0 0 3.83464 2.31758 0.849563 4.8944 1.7768 0. 1
</event>
<event>
 4 80 1 -1 -1 -1
 11 -1 0 0 0 0 0 0 5 5 0 0. 9.
 -11 -1 0 0 0 0 0 0 -5 5 0 0. 9.
 15 1 1 2 0 0 -2.92096 1.64903 -3.25438 5 1.7768 0. 1
 -15 1 1 2 0 0 2.92096 -1.64903 3.25438 5 1.7768 0. -1
</event>
<event>
 4 80 1 -1 -1 -1
 11 -1 0 0 0 0 0 0 4.95553 4.95553 0 0. 9.
 -11 -1 0 0 0 0 0 0 -4.99997 4.99997 0 0. 9.
 15 1 1 2 0 0 2.6611 0.557097 3.74982 4.96091 1.7768 0. -1
 -15 1 1 2 0 0 -2.6611 -0.557097 -3.79426 4.99459 1.7768 0. 1
</event>
<event>
 4 80 1 -1 -1 -1
 11 -1 0 0 0 0 0 0 5 5 0 0. 9.
 -11 -1 0 0 0 0 0 0 -4.99988 4.99988 0 0. 9.
 15 1 1 2 0 0 -2.54231 -1.03888 3.78147 4.99999 1.7768 0. 1
 -15 1 1 2 0 0 2.54231 1.03888 -3.78136 4.9999 1.7768 0. -1
</event>
<event>
 4 80 1 -1 -1 -1
 11 -1 0 0 0 0 0 0 5 5 0 0. 9.
 -11 -1 0 0 0 0 0 0 -5 5 0 0. 9.
 15 1 1 2 0 0 4.18438 0.876267 1.88823 5 1.7768 0. 1
 -15 1 1 2 0 0 -4.18438 -0.876267 -1.88823 5 1.7768 0. -1
</event>
<event>
 4 80 1 -1 -1 -1
 11 -1 0 0 0 0 0 0 4.9457 4.9457 0 0. 9.
 -11 -1 0 0 0 0 0 0 -4.99946 4.99946 0 0. 9.
 15 1 1 2 0 0 -2.8786 -3.62047 0.390183 4.97032 1.7768 0. 1
 -15 1 1 2 0 0 2.8786 3.62047 -0.443946 4.97483 1.7768 0. -1
</event>
<event>
 4 80 1 -1 -1 -1
 11 -1 0 0 0 0 0 0 4.8959 4.8959 0 0. 9.
 -11 -1 0 0 0 0 0 0 -5 5 0 0. 9.
 15 1 1 2 0 0 1.67202 -0.736401 4.18892 4.90334 1.7768 0. -1
 -15 1 1 2 0 0 -1.67202 0.736401 -4.29302 4.99256 1.7768 0. 1
</event>
<event>
 4 80 1 -1 -1 -1
 11 -1 0 0 0 0 0 0 4.99933 4.99933 0 0. 9.
 -11 -1 0 0 0 0 0 0 -4.9982 4.9982 0 0. 9.
 15 1 1 2 0 0 -3.03364 -2.90896 2.04136 4.99899 1.7768 0. -1
 -15 1 1 2 0 0 3.03364 2.90896 -2.04024 4.99853 1.7768 0. 1
</event>
<event>
 4 80 1 -1 -1 -1
 11 -1 0 0 0 0 0 0 3.9489 3.9489 0 0. 9.
 -11 -1 0 0 0 0 0 0 -3.30375 3.30375 0 0. 9.
 15 1 1 2 0 0 -0.0238975 0.418712 -2.80633 3.348 1.7768 0. -1
 -15 1 1 2 0 0 0.0238975 -0.418712 3.45147 3.90465 1.7768 0. 1
</event>
<event>
 4 80 1 -1 -1 -1
 11 -1 0 0 0 0 0 0 5 5 0 0. 9.
 -11 -1 0 0 0 0 0 0 -4.0242 4.0242 0 0. 9.
 15 1 1 2 0 0 -1.77783 0.451366 4.19731 4.9132 1.7768 0. -1
 -15 1 1 2 0 0 1.77783 -0.451366 -3.22151 4.11099 1.7768 0. 1
</event>
<event>
 4 80 1 -1 -1 -1
 11 -1 0 0 0 0 0 0 5 5 0 0. 9.
 -11 -1 0 0 0 0 0 0 -5 5 0 0. 9.
 15 1 1 2 0 0 -0.646255 1.09767 4.49664 5 1.7768 0. 1
 -15 1 1 2 0 0 0.646255 -1.09767 -4.49664 5 1.7768 0. -1
</event>
<event>
 4 80 1 -1 -1 -1
 11 -1 0 0 0 0 0 0 4.99693 4.99693 0 0. 9.
 -11 -1 0 0 0 0 0 0 -5 5 0 0. 9.
 15 1 1 2 0 0 4.2472 1.67767 0.985183 4.99816 1.7768 0. 1
 -15 1 1 2 0 0 -4.2472 -1.67767 -0.988255 4.99877 1.7768 0. -1
</event>
<event>
 4 80 1 -1 -1 -1
 11 -1 0 0 0 0 0 0 5 5 0 0. 9.
 -11 -1 0 0 0 0 0 0 -5 5 0 0. 9.
 15 1 1 2 0 0 2.44213 -3.16678 2.41862 5 1.7768 0. -1
 -15 1 1 2 0 0 -2.44213 3.16678 -2.41862 5 1.7768 0. 1
</event>
<event>
 4 80 1 -1 -1 -1
 11 -1 0 0 0 0 0 0 5 5 0 0. 9.
 -11 -1 0 0 0 0 0 0 -5 5 0 0. 9.
 15 1 1 2 0 0 -2.2453 0.852674 4.00922 5 1.7768 0. 1
 -15 1 1 2 0 0 2.2453 -0.852674 -4.00922 5 1.7768 0. -1
</event>
<event>
 4 80 1 -1 -1 -1
 11 -1 0 0 0 0 0 0 5 5 0 0. 9.
 -11 -1 0 0 0 0 0 0 -4.96169 4.96169 0 0. 9.
 15 1 1 2 0 0 -2.60871 -2.69889 2.76896 4.99142 1.7768 0. -1
 -15 1 1 2 0 0 2.60871 2.69889 -2.73065 4.97027 1.7768 0. 1
</event>
<event>
 4 80 1 -1 -1 -1
 11 -1 0 0 0 0 0 0 3.79363 3.79363 0 0. 9.
 -11 -1 0 0 0 0 0 0 -4.9946 4.9946 0 0. 9.
 15 1 1 2 0 0 3.6861 -0.076326 0.895721 4.18965 1.7768 0. 1
 -15 1 1 2 0 0 -3.6861 0.076326 -2.09669 4.59858 1.7768 0. -1
</event>
<event>
 4 80 1 -1 -1 -1
 11 -1 0 0 0 0 0 0 2.30708 2.30708 0 0. 9.
 -11 -1 0 0 0 0 0 0 -4.62679 4.62679 0 0. 9.
 15 1 1 2 0 0 2.23209 -1.2786 -2.16631 3.80364 1.7768 0. 1
 -15 1 1 2 0 0 -2.23209 1.2786 -0.153393 3.13022 1.7768 0. -1
</event>
<event>
 4 80 1 -1 -1 -1
 11 -1 0 0 0 0 0 0 4.99999 4.99999 0 0. 9.
 -11 -1 0 0 0 0 0 0 -5 5 0 0. 9.
 15 1 1 2 0 0 -2.47387 -3.80761 1.10649 5 1.7768 0. -1
 -15 1 1 2 0 0 2.47387 3.80761 -1.1065 5 1.7768 0. 1
</event>
<event>
 4 80 1 -1 -1 -1
 11 -1 0 0 0 0 0 0 5 5 0 0. 9.
 -11 -1 0 0 0 0 0 0 -5 5 0 0. 9.
 15 1 1 2 0 0 3.56845 -1.94902 -2.3043 5 1.7768 0. -1
 -15 1 1 2 0 0 -3.56845 1.94902 2.30429 5 1.7768 0. 1
</event>
<event>
 4 80 1 -1 -1 -1
 11 -1 0 0 0 0 0 0 4.59249 4.59249 0 0. 9.
 -11 -1 0 0 0 0 0 0 -4.99823 4.99823 0 0. 9.
 15 1 1 2 0 0 1.36635 -1.32659 -4.22765 4.96563 1.7768 0. 1
 -15 1 1 2 0 0 -1.36635 1.32659 3.82191 4.62509 1.7768 0. -1
</event>
<event>
 4 80 1 -1 -1 -1
 11 -1 0 0 0 0 0 0 4.39508 4.39508 0 0. 9.
 -11 -1 0 0 0 0 0 0 -4.98159 4.98159 0 0. 9.
 15 1 1 2 0 0 -1.1161 -3.8691 1.29765 4.58882 1.7768 0. 1
 -15 1 1 2 0 0 1.1161 3.8691 -1.88417 4.78785 1.7768 0. -1
</event>
<event>
 4 80 1 -1 -1 -1
 11 -1 0 0 0 0 0 0 1.03912 1.03912 0 0. 9.
 -11 -1 0 0 0 0 0 0 -4.97309 4.97309 0 0. 9.
 15 1 1 2 0 0 -1.10803 -0.684211 -2.70807 3.49102 1.7768 0. -1
 -15 1 1 2 0 0 1.10803 0.684211 -1.2259 2.5212 1.7768 0. 1
</event>
<event>
 4 80 1 -1 -1 -1
 11 -1 0 0 0 0 0 0 5 5 0 0. 9.
 -11 -1 0 0 0 0 0 0 -4.99997 4.99997 0 0. 9.
 15 1 1 2 0 0 -0.993669 3.5962 -2.8146 4.99997 1.7768 0. 1
 -15 1 1 2 0 0 0.993669 -3.5962 2.81464 4.99999 1.7768 0. -1
</event>
<event>
 4 80 1 -1 -1 -1
 11 -1 0 0 0 0 0 0 5 5 0 0. 9.
 -11 -1 0 0 0 0 0 0 -4.99824 4.99824 0 0. 9.
 15 1 1 2 0 0 -2.69756 2.9948 2.36473 4.99953 1.7768 0. -1
 -15 1 1 2 0 0 2.69756 -2.9948 -2.36297 4.9987 1.7768 0. 1
</event>
<event>
 4 80 1 -1 -1 -1
 11 -1 0 0 0 0 0 0 5 5 0 0. 9.
 -11 -1 0 0 0 0 0 0 -5 5 0 0. 9.
 15 1 1 2 0 0 1.36195 -1.78468 4.09906 5 1.7768 0. 1
 -15 1 1 2 0 0 -1.36195 1.78468 -4.09906 5 1.7768 0. -1
</event>
<event>
 4 80 1 -1 -1 -1
 11 -1 0 0 0 0 0 0 5 5 0 0. 9.
 -11 -1 0 0 0 0 0 0 -5 5 0 0. 9.
 15 1 1 2 0 0 -1.08208 1.52803 -4.28212 5 1.7768 0. 1
 -15 1 1 2 0 0 1.08208 -1.52803 4.28212 5 1.7768 0. -1
</event>
<event>
 4 80 1 -1 -1 -1
 11 -1 0 0 0 0 0 0 5 5 0 0. 9.
 -11 -1 0 0 0 0 0 0 -4.99992 4.99992 0 0. 9.
 15 1 1 2 0 0 1.46968 -2.60844 -3.58855 4.99993 1.7768 0. 1
 -15 1 1 2 0 0 -1.46968 2.60844 3.58863 4.99999 1.7768 0. -1
</event>
<event>
 4 80 1 -1 -1 -1
 11 -1 0 0 0 0 0 0 5 5 0 0. 9.
 -11 -1 0 0 0 0 0 0 -5 5 0 0. 9.
 15 1 1 2 0 0 -1.15411 -4.00547 -2.11342 5 1.7768 0. -1
 -15 1 1 2 0 0 1.15411 4.00547 2.11342 5 1.7768 0. 1
</event>
<event>
 4 80 1 -1 -1 -1
 11 -1 0 0 0 0 0 0 5 5 0 0. 9.
 -11 -1 0 0 0 0 0 0 -3.08981 3.08981 0 0. 9.
 15 1 1 2 0 0 -2.32281 2.20551 2.42192 4.39126 1.7768 0. -1
 -15 1 1 2 0 0 2.32281 -2.20551 -0.511727 3.69856 1.7768 0. 1
</event>
<event>
 4 80 1 -1 -1 -1
 11 -1 0 0 0 0 0 0 4.8931 4.8931 0 0. 9.
 -11 -1 0 0 0 0 0 0 -5 5 0 0. 9.
 15 1 1 2 0 0 -4.06108 -2.19357 0.00715515 4.9459 1.7768 0. 1
 -15 1 1 2 0 0 4.06108 2.19357 -0.114055 4.9472 1.7768 0. -1
</event>
<event>
 4 80 1 -1 -1 -1
 11 -1 0 0 0 0 0 0 5 5 0 0. 9.
 -11 -1 0 0 0 0 0 0 -4.99528 4.99528 0 0. 9.
 15 1 1 2 0 0 2.32342 -1.05531 -3.91003 4.9958 1.7768 0. -1
 -15 1 1 2 0 0 -2.32342 1.05531 3.91474 4.99949 1.7768 0. 1
</event>
<event>
 4 80 1 -1 -1 -1
 11 -1 0 0 0 0 0 0 4.99999 4.99999 0 0. 9.
 -11 -1 0 0 0 0 0 0 -4.99998 4.99998 0 0. 9.
 15 1 1 2 0 0 3.02016 2.59256 -2.44936 4.99998 1.7768 0. 1
 -15 1 1 2 0 0 -3.02016 -2.59256 2.44937 4.99999 1.7768 0. -1
</event>
<event>
 4 80 1 -1 -1 -1
 11 -1 0 0 0 0 0 0 4.99917 4.99917 0 0. 9.
 -11 -1 0 0 0 0 0 0 -5 5 0 0. 9.
 15 1 1 2 0 0 1.83486 1.27335 4.10446 4.99925 1.7768 0. -1
 -15 1 1 2 0 0 -1.83486 -1.27335 -4.10529 4.99993 1.7768 0. 1
</event>
<event>
 4 80 1 -1 -1 -1
 11 -1 0 0 0 0 0 0 2.20592 2.20592 0 0. 9.
 -11 -1 0 0 0 0 0 0 -4.97945 4.97945 0 0. 9.
 15 1 1 2 0 0 1.05441 2.11505 0.236119 2.96626 1.7768 0. 1
 -15 1 1 2 0 0 -1.05441 -2.11505 -3.00964 4.21911 1.7768 0. -1
</event>
<event>
 4 80 1 -1 -1 -1
 11 -1 0 0 0 0 0 0 5 5 0 0. 9.
 -11 -1 0 0 0 0 0 0 -5 5 0 0. 9.
 15 1 1 2 0 0 -3.28736 -2.1657 2.51899 5 1.7768 0. 1
 -15 1 1 2 0 0 3.28736 2.1657 -2.51899 5 1.7768 0. -1
</event>
<event>
 4 80 1 -1 -1 -1
 11 -1 0 0 0 0 0 0 2.35315 2.35315 0 0. 9.
 -11 -1 0 0 0 0 0 0 -2.87439 2.87439 0 0. 9.
 15 1 1 2 0 0 0.483038 -1.49752 -1.32907 2.7203 1.7768 0. -1
 -15 1 1 2 0 0 -0.483038 1.49752 0.807835 2.50724 1.7768 0. 1
</event>
<event>
 4 80 1 -1 -1 -1
 11 -1 0 0 0 0 0 0 5 5 0 0. 9.
 -11 -1 0 0 0 0 0 0 -4.99942 4.99942 0 0. 9.
 15 1 1 2 0 0 -3.33518 -0.761609 -3.1834 4.99953 1.7768 0. -1
 -15 1 1 2 0 0 3.33518 0.761609 3.18398 4.9999 1.7768 0. 1
</event>
<event>
 4 80 1 -1 -1 -1
 11 -1 0 0 0 0 0 0 5 5 0 0. 9.
 -11 -1 0 0 0 0 0 0 -5 5 0 0. 9.
 15 1 1 2 0 0 2.62956 -2.67841 2.78456 5 1.7768 0. -1
 -15 1 1 2 0 0 -2.62956 2.67841 -2.78456 5 1.7768 0. 1
</event>
<event>
 4 80 1 -1 -1 -1
 11 -1 0 0 0 0 0 0 1.99433 1.99433 0 0. 9.
 -11 -1 0 0 0 0 0 0 -4.26057 4.26057 0 0. 9.
 15 1 1 2 0 0 1.75674 1.16567 -0.118478 2.75983 1.7768 0. 1
 -15 1 1 2 0 0 -1.75674 -1.16567 -2.14775 3.49507 1.7768 0. -1
</event>
<event>
 4 80 1 -1 -1 -1
 11 -1 0 0 0 0 0 0 1.77799 1.77799 0 0. 9.
 -11 -1 0 0 0 0 0 0 -4.99758 4.99758 0 0. 9.
 15 1 1 2 0 0 1.55608 -0.0437795 -3.6758 4.3695 1.7768 0. -1
 -15 1 1 2 0 0 -1.55608 0.0437795 0.456213 2.40607 1.7768 0. 1
</event>
<event>
 4 80 1 -1 -1 -1
 11 -1 0 0 0 0 0 0 5 5 0 0. 9.
 -11 -1 0 0 0 0 0 0 -5 5 0 0. 9.
 15 1 1 2 0 0 -3.26124 -0.0684442 -3.34692 5 1.7768 0. 1
 -15 1 1 2 0 0 3.26124 0.0684442 3.34692 5 1.7768 0. -1
</event>
<event>
 4 80 1 -1 -1 -1
 11 -1 0 0 0 0 0 0 5 5 0 0. 9.
 -11 -1 0 0 0 0 0 0 -5 5 0 0. 9.
 15 1 1 2 0 0 1.70336 -3.35812 2.76836 5 1.7768 0. -1
 -15 1 1 2 0 0 -1.70336 3.35812 -2.76836 5 1.7768 0. 1
</event>
<event>
 4 80 1 -1 -1 -1
 11 -1 0 0 0 0 0 0 5 5 0 0. 9.
 -11 -1 0 0 0 0 0 0 -5 5 0 0. 9.
 15 1 1 2 0 0 3.17767 0.183621 -3.42212 5 1.7768 0. 1
 -15 1 1 2 0 0 -3.17767 -0.183621 3.42213 5 1.7768 0. -1
</event>
<event>
 4 80 1 -1 -1 -1
 11 -1 0 0 0 0 0 0 5 5 0 0. 9.
 -11 -1 0 0 0 0 0 0 -4.91482 4.91482 0 0. 9.
 15 1 1 2 0 0 -3.09648 -3.39619 0.584922 4.96207 1.7768 0. 1
 -15 1 1 2 0 0 3.09648 3.39619 -0.499746 4.95275 1.7768 0. -1
</event>
<event>
 4 80 1 -1 -1 -1
 11 -1 0 0 0 0 0 0 5 5 0 0. 9.
 -11 -1 0 0 0 0 0 0 -1.7885 1.7885 0 0. 9.
 15 1 1 2 0 0 -1.3067 -0.948777 3.62892 4.35137 1.7768 0. -1
 -15 1 1 2 0 0 1.3067 0.948777 -0.417419 2.43713 1.7768 0. 1
</event>
<event>
 4 80 1 -1 -1 -1
 11 -1 0 0 0 0 0 0 1.73096 1.73096 0 0. 9.
 -11 -1 0 0 0 0 0 0 -5 5 0 0. 9.
 15 1 1 2 0 0 -2.15311 0.752504 -1.01326 3.06375 1.7768 0. 1
 -15 1 1 2 0 0 2.15311 -0.752504 -2.25578 3.66721 1.7768 0. -1
</event>
<event>
 4 80 1 -1 -1 -1
 11 -1 0 0 0 0 0 0 5 5 0 0. 9.
 -11 -1 0 0 0 0 0 0 -5 5 0 0. 9.
 15 1 1 2 0 0 -1.49413 4.31798 -0.982289 5 1.7768 0. -1
 -15 1 1 2 0 0 1.49413 -4.31798 0.982289 5 1.7768 0. 1
</event>
<event>
 4 80 1 -1 -1 -1
 11 -1 0 0 0 0 0 0 4.99717 4.99717 0 0. 9.
 -11 -1 0 0 0 0 0 0 -4.99958 4.99958 0 0. 9.
 15 1 1 2 0 0 1.6656 -3.5967 -2.47418 4.99898 1.7768 0. -1
 -15 1 1 2 0 0 -1.6656 3.5967 2.47177 4.99778 1.7768 0. 1
</event>
<event>
 4 80 1 -1 -1 -1
 11 -1 0 0 0 0 0 0 5 5 0 0. 9.
 -11 -1 0 0 0 0 0 0 -5 5 0 0. 9.
 15 1 1 2 0 0 2.81755 3.45781 1.39543 5 1.7768 0. -1
 -15 1 1 2 0 0 -2.81755 -3.45781 -1.39543 5 1.7768 0. 1
</event>
<event>
 4 80 1 -1 -1 -1
 11 -1 0 0 0 0 0 0 4.99907 4.99907 0 0. 9.
 -11 -1 0 0 0 0 0 0 -5 5 0 0. 9.
 15 1 1 2 0 0 1.71649 0.790783 -4.27433 4.99993 1.7768 0. 1
 -15 1 1 2 0 0 -1.71649 -0.790783 4.2734 4.99914 1.7768 0. -1
</event>
<event>
 4 80 1 -1 -1 -1
 11 -1 0 0 0 0 0 0 5 5 0 0. 9.
 -11 -1 0 0 0 0 0 0 -5 5 0 0. 9.
 15 1 1 2 0 0 3.46188 -2.38743 2.03908 5 1.7768 0. -1
 -15 1 1 2 0 0 -3.46188 2.38743 -2.03908 5 1.7768 0. 1
</event>
<event>
 4 80 1 -1 -1 -1
 11 -1 0 0 0 0 0 0 4.20428 4.20428 0 0. 9.
 -11 -1 0 0 0 0 0 0 -5 5 0 0. 9.
 15 1 1 2 0 0 -1.53964 3.70603 0.9332 4.48707 1.7768 0. 1
 -15 1 1 2 0 0 1.53964 -3.70603 -1.72892 4.71721 1.7768 0. -1
</event>
<event>
 4 80 1 -1 -1 -1
 11 -1 0 0 0 0 0 0 5 5 0 0. 9.
 -11 -1 0 0 0 0 0 0 -5 5 0 0. 9.
 15 1 1 2 0 0 -2.57297 -3.16882 -2.27612 5 1.7768 0. 1
 -15 1 1 2 0 0 2.57297 3.16882 2.27612 5 1.7768 0. -1
</event>
<event>
 4 80 1 -1 -1 -1
 11 -1 0 0 0 0 0 0 4.9998 4.9998 0 0. 9.
 -11 -1 0 0 0 0 0 0 -4.46401 4.46401 0 0. 9.
 15 1 1 2 0 0 2.50619 -2.7977 2.51947 4.85938 1.7768 0. 1
 -15 1 1 2 0 0 -2.50619 2.7977 -1.98368 4.60443 1.7768 0. -1
</event>
<event>
 4 80 1 -1 -1 -1
 11 -1 0 0 0 0 0 0 4.77634 4.77634 0 0. 9.
 -11 -1 0 0 0 0 0 0 -5 5 0 0. 9.
 15 1 1 2 0 0 2.37919 3.86689 0.220853 4.88056 1.7768 0. -1
 -15 1 1 2 0 0 -2.37919 -3.86689 -0.444515 4.89578 1.7768 0. 1
</event>
<event>
 4 80 1 -1 -1 -1
 11 -1 0 0 0 0 0 0 5 5 0 0. 9.
 -11 -1 0 0 0 0 0 0 -4.99889 4.99889 0 0. 9.
 15 1 1 2 0 0 0.234482 -4.62211 -0.645831 4.99937 1.7768 0. 1
 -15 1 1 2 0 0 -0.234482 4.62211 0.646944 4.99952 1.7768 0. -1
</event>
<event>
 4 80 1 -1 -1 -1
 11 -1 0 0 0 0 0 0 5 5 0 0. 9.
 -11 -1 0 0 0 0 0 0 -4.9528 4.9528 0 0. 9.
 15 1 1 2 0 0 1.27121 -1.36573 -4.2338 4.95621 1.7768 0. 1
 -15 1 1 2 0 0 -1.27121 1.36573 4.281 4.99659 1.7768 0. -1
</event>
<event>
 4 80 1 -1 -1 -1
 11 -1 0 0 0 0 0 0 5 5 0 0. 9.
 -11 -1 0 0 0 0 0 0 -5 5 0 0. 9.
 15 1 1 2 0 0 0.0490452 -4.66656 -0.251118 5 1.7768 0. 1
 -15 1 1 2 0 0 -0.0490452 4.66656 0.251118 5 1.7768 0. -1
</event>
<event>
 4 80 1 -1 -1 -1
 11 -1 0 0 0 0 0 0 3.00649 3.00649 0 0. 9.
 -11 -1 0 0 0 0 0 0 -4.55437 4.55437 0 0. 9.
 15 1 1 2 0 0 1.95499 -1.38557 1.46275 3.32252 1.7768 0. -1
 -15 1 1 2 0 0 -1.95499 1.38557 -3.01063 4.23833 1.7768 0. 1
</event>
<event>
 4 80 1 -1 -1 -1
 11 -1 0 0 0 0 0 0 5 5 0 0. 9.
 -11 -1 0 0 0 0 0 0 -4.99822 4.99822 0 0. 9.
 15 1 1 2 0 0 2.70352 0.786258 -3.7282 4.99845 1.7768 0. -1
 -15 1 1 2 0 0 -2.70352 -0.786258 3.72999 4.99977 1.7768 0. 1
</event>
<event>
 4 80 1 -1 -1 -1
 11 -1 0 0 0 0 0 0 4.99997 4.99997 0 0. 9.
 -11 -1 0 0 0 0 0 0 -2.51284 2.51284 0 0. 9.
 15 1 1 2 0 0 -1.65876 -2.35424 0.125798 3.38636 1.7768 0. -1
 -15 1 1 2 0 0 1.65876 2.35424 2.36133 4.12644 1.7768 0. 1
</event>
<event>
 4 80 1 -1 -1 -1
 11 -1 0 0 0 0 0 0 5 5 0 0. 9.
 -11 -1 0 0 0 0 0 0 -5 5 0 0. 9.
 15 1 1 2 0 0 0.160356 -1.51778 -4.41734 5 1.7768 0. -1
 -15 1 1 2 0 0 -0.160356 1.51778 4.41734 5 1.7768 0. 1
</event>
<event>
 4 80 1 -1 -1 -1
 11 -1 0 0 0 0 0 0 5 5 0 0. 9.
 -11 -1 0 0 0 0 0 0 -5 5 0 0. 9.
 15 1 1 2 0 0 -4.64476 -0.517464 0.0257626 5 1.7768 0. 1
 -15 1 1 2 0 0 4.64476 0.517464 -0.0257626 5 1.7768 0. -1
</event>
<event>
 4 80 1 -1 -1 -1
 11 -1 0 0 0 0 0 0 5 5 0 0. 9.
 -11 -1 0 0 0 0 0 0 -4.99996 4.99996 0 0. 9.
 15 1 1 2 0 0 2.89859 1.12676 -3.48863 4.99996 1.7768 0. -1
 -15 1 1 2 0 0 -2.89859 -1.12676 3.48867 4.99999 1.7768 0. 1
</event>
<event>
 4 80 1 -1 -1 -1
 11 -1 0 0 0 0 0 0 5 5 0 0. 9.
 -11 -1 0 0 0 0 0 0 -4.99987 4.99987 0 0. 9.
 15 1 1 2 0 0 -0.801322 -1.47124 4.36297 4.99999 1.7768 0. 1
 -15 1 1 2 0 0 0.801322 1.47124 -4.36285 4.99988 1.7768 0. -1
</event>
<event>
 4 80 1 -1 -1 -1
 11 -1 0 0 0 0 0 0 4.99706 4.99706 0 0. 9.
 -11 -1 0 0 0 0 0 0 -5 5 0 0. 9.
 15 1 1 2 0 0 -3.1573 -2.59 -2.27103 4.9992 1.7768 0. 1
 -15 1 1 2 0 0 3.1573 2.59 2.26809 4.99786 1.7768 0. -1
</event>
<event>
 4 80 1 -1 -1 -1
 11 -1 0 0 0 0 0 0 5 5 0 0. 9.
 -11 -1 0 0 0 0 0 0 -4.99896 4.99896 0 0. 9.
 15 1 1 2 0 0 -0.340875 4.02742 -2.34484 4.99924 1.7768 0. 1
 -15 1 1 2 0 0 0.340875 -4.02742 2.34588 4.99972 1.7768 0. -1
</event>
<event>
 4 80 1 -1 -1 -1
 11 -1 0 0 0 0 0 0 4.99972 4.99972 0 0. 9.
 -11 -1 0 0 0 0 0 0 -3.58196 3.58196 0 0. 9.
 15 1 1 2 0 0 -2.86399 -2.55399 0.871624 4.31773 1.7768 0. 1
 -15 1 1 2 0 0 2.86399 2.55399 0.546143 4.26396 1.7768 0. -1
</event>
<event>
 4 80 1 -1 -1 -1
 11 -1 0 0 0 0 0 0 4.99997 4.99997 0 0. 9.
 -11 -1 0 0 0 0 0 0 -5 5 0 0. 9.
 15 1 1 2 0 0 0.407977 1.77119 -4.30565 5 1.7768 0. -1
 -15 1 1 2 0 0 -0.407977 -1.77119 4.30562 4.99997 1.7768 0. 1
</event>
<event>
 4 80 1 -1 -1 -1
 11 -1 0 0 0 0 0 0 5 5 0 0. 9.
 -11 -1 0 0 0 0 0 0 -5 5 0 0. 9.
 15 1 1 2 0 0 1.34082 -4.47679 0.0533034 5 1.7768 0. -1
 -15 1 1 2 0 0 -1.34082 4.47679 -0.0533034 5 1.7768 0. 1
</event>
<event>
 4 80 1 -1 -1 -1
 11 -1 0 0 0 0 0 0 2.19563 2.19563 0 0. 9.
 -11 -1 0 0 0 0 0 0 -4.99443 4.99443 0 0. 9.
 15 1 1 2 0 0 0.820898 -1.97439 -3.35235 4.35523 1.7768 0. 1
 -15 1 1 2 0 0 -0.820898 1.97439 0.553546 2.83482 1.7768 0. -1
</event>
<event>
 4 80 1 -1 -1 -1
 11 -1 0 0 0 0 0 0 4.99951 4.99951 0 0. 9.
 -11 -1 0 0 0 0 0 0 -5 5 0 0. 9.
 15 1 1 2 0 0 -2.40895 2.46791 -3.154 4.99991 1.7768 0. 1
 -15 1 1 2 0 0 2.40895 -2.46791 3.15351 4.9996 1.7768 0. -1
</event>
<event>
 4 80 1 -1 -1 -1
 11 -1 0 0 0 0 0 0 5 5 0 0. 9.
 -11 -1 0 0 0 0 0 0 -5 5 0 0. 9.
 15 1 1 2 0 0 0.132441 -3.64868 -2.91751 5 1.7768 0. 1
 -15 1 1 2 0 0 -0.132441 3.64868 2.91751 5 1.7768 0. -1
</event>
<event>
 4 80 1 -1 -1 -1
 11 -1 0 0 0 0 0 0 5 5 0 0. 9.
 -11 -1 0 0 0 0 0 0 -5 5 0 0. 9.
 15 1 1 2 0 0 0.924668 4.49407 -0.889157 5 1.7768 0. 1
 -15 1 1 2 0 0 -0.924668 -4.49407 0.889157 5 1.7768 0. -1
</event>
<event>
 4 80 1 -1 -1 -1
 11 -1 0 0 0 0 0 0 4.99983 4.99983 0 0. 9.
 -11 -1 0 0 0 0 0 0 -5 5 0 0. 9.
 15 1 1 2 0 0 3.59315 0.260262 -2.97716 4.99997 1.7768 0. 1
 -15 1 1 2 0 0 -3.59315 -0.260262 2.97699 4.99987 1.7768 0. -1
</event>
<event>
 4 80 1 -1 -1 -1
 11 -1 0 0 0 0 0 0 5 5 0 0. 9.
 -11 -1 0 0 0 0 0 0 -4.99296 4.99296 0 0. 9.
 15 1 1 2 0 0 1.35712 -2.61256 3.62841 4.99903 1.7768 0. -1
 -15 1 1 2 0 0 -1.35712 2.61256 -3.62136 4.99392 1.7768 0. 1
</event>
<event>
 4 80 1 -1 -1 -1
 11 -1 0 0 0 0 0 0 4.99112 4.99112 0 0. 9.
 -11 -1 0 0 0 0 0 0 -4.63866 4.63866 0 0. 9.
 15 1 1 2 0 0 1.71064 -1.72372 3.93332 4.9524 1.7768 0. -1
 -15 1 1 2 0 0 -1.71064 1.72372 -3.58086 4.67737 1.7768 0. 1
</event>
<event>
 4 80 1 -1 -1 -1
 11 -1 0 0 0 0 0 0 5 5 0 0. 9.
 -11 -1 0 0 0 0 0 0 -5 5 0 0. 9.
 15 1 1 2 0 0 -0.900651 -3.42839 3.04585 5 1.7768 0. 1
 -15 1 1 2 0 0 0.900651 3.42839 -3.04585 5 1.7768 0. -1
</event>
<event>
 4 80 1 -1 -1 -1
 11 -1 0 0 0 0 0 0 5 5 0 0. 9.
 -11 -1 0 0 0 0 0 0 -4.84826 4.84826 0 0. 9.
 15 1 1 2 0 0 2.08331 -1.78698 3.75735 4.98085 1.7768 0. -1
 -15 1 1 2 0 0 -2.08331 1.78698 -3.60562 4.86741 1.7768 0. 1
</event>
<event>
 4 80 1 -1 -1 -1
 11 -1 0 0 0 0 0 0 4.96629 4.96629 0 0. 9.
 -11 -1 0 0 0 0 0 0 -5 5 0 0. 9.
 15 1 1 2 0 0 3.30855 2.64024 1.92129 4.97659 1.7768 0. -1
 -15 1 1 2 0 0 -3.30855 -2.64024 -1.955 4.9897 1.7768 0. 1
</event>
<event>
 4 80 1 -1 -1 -1
 11 -1 0 0 0 0 0 0 4.7643 4.7643 0 0. 9.
 -11 -1 0 0 0 0 0 0 -5 5 0 0. 9.
 15 1 1 2 0 0 3.48024 -0.687969 2.72524 4.81352 1.7768 0. -1
 -15 1 1 2 0 0 -3.48024 0.687969 -2.96093 4.95078 1.7768 0. 1
</event>
<event>
 4 80 1 -1 -1 -1
 11 -1 0 0 0 0 0 0 5 5 0 0. 9.
 -11 -1 0 0 0 0 0 0 -4.9992 4.9992 0 0. 9.
 15 1 1 2 0 0 -4.00347 -2.32132 -0.649189 4.99955 1.7768 0. 1
 -15 1 1 2 0 0 4.00347 2.32132 0.649992 4.99965 1.7768 0. -1
</event>
<event>
 4 80 1 -1 -1 -1
 11 -1 0 0 0 0 0 0 4.99882 4.99882 0 0. 9.
 -11 -1 0 0 0 0 0 0 -1.81564 1.81564 0 0. 9.
 15 1 1 2 0 0 -2.273 0.467457 0.765695 3.02143 1.7768 0. -1
 -15 1 1 2 0 0 2.273 -0.467457 2.41748 3.79302 1.7768 0. 1
</event>
<event>
 4 80 1 -1 -1 -1
 11 -1 0 0 0 0 0 0 5 5 0 0. 9.
 -11 -1 0 0 0 0 0 0 -5 5 0 0. 9.
 15 1 1 2 0 0 3.2298 -1.56155 2.99537 5 1.7768 0. -1
 -15 1 1 2 0 0 -3.2298 1.56155 -2.99537 5 1.7768 0. 1
</event>
<event>
 4 80 1 -1 -1 -1
 11 -1 0 0 0 0 0 0 4.99998 4.99998 0 0. 9.
 -11 -1 0 0 0 0 0 0 -5 5 0 0. 9.
 15 1 1 2 0 0 -2.31122 -2.01316 3.52811 4.99999 1.7768 0. 1
 -15 1 1 2 0 0 2.31122 2.01316 -3.52813 5 1.7768 0. -1
</event>
<event>
 4 80 1 -1 -1 -1
 11 -1 0 0 0 0 0 0 5 5 0 0. 9.
 -11 -1 0 0 0 0 0 0 -4.99931 4.99931 0 0. 9.
 15 1 1 2 0 0 -2.58157 1.69184 3.50919 4.9999 1.7768 0. 1
 -15 1 1 2 0 0 2.58157 -1.69184 -3.5085 4.99941 1.7768 0. -1
</event>
<event>
 4 80 1 -1 -1 -1
 11 -1 0 0 0 0 0 0 4.9973 4.9973 0 0. 9.
 -11 -1 0 0 0 0 0 0 -5 5 0 0. 9.
 15 1 1 2 0 0 -2.50532 3.92461 -0.388118 4.99875 1.7768 0. 1
 -15 1 1 2 0 0 2.50532 -3.92461 0.385418 4.99854 1.7768 0. -1
</event>
<event>
 4 80 1 -1 -1 -1
 11 -1 0 0 0 0 0 0 4.99999 4.99999 0 0. 9.
 -11 -1 0 0 0 0 0 0 -5 5 0 0. 9.
 15 1 1 2 0 0 -0.296033 -1.95069 4.23667 4.99999 1.7768 0. -1
 -15 1 1 2 0 0 0.296033 1.95069 -4.23668 5 1.7768 0. 1
</event>
<event>
 4 80 1 -1 -1 -1
 11 -1 0 0 0 0 0 0 5 5 0 0. 9.
 -11 -1 0 0 0 0 0 0 -1.46276 1.46276 0 0. 9.
 15 1 1 2 0 0 -0.917275 -1.56346 2.88328 3.84146 1.7768 0. 1
 -15 1 1 2 0 0 0.917275 1.56346 0.653968 2.6213 1.7768 0. -1
</event>
<event>
 4 80 1 -1 -1 -1
 11 -1 0 0 0 0 0 0 5 5 0 0. 9.
 -11 -1 0 0 0 0 0 0 -4.99999 4.99999 0 0. 9.
 15 1 1 2 0 0 3.08711 -1.16591 -3.30947 4.99999 1.7768 0. -1
 -15 1 1 2 0 0 -3.08711 1.16591 3.30948 5 1.7768 0. 1
</event>
<event>
 4 80 1 -1 -1 -1
 11 -1 0 0 0 0 0 0 5 5 0 0. 9.
 -11 -1 0 0 0 0 0 0 -4.77649 4.77649 0 0. 9.
 15 1 1 2 0 0 -3.03672 0.927724 -3.15136 4.81364 1.7768 0. 1
 -15 1 1 2 0 0 3.03672 -0.927724 3.37487 4.96285 1.7768 0. -1
</event>
<event>
 4 80 1 -1 -1 -1
 11 -1 0 0 0 0 0 0 4.76525 4.76525 0 0. 9.
 -11 -1 0 0 0 0 0 0 -5 5 0 0. 9.
 15 1 1 2 0 0 -1.69787 3.0158 2.83148 4.81174 1.7768 0. -1
 -15 1 1 2 0 0 1.69787 -3.0158 -3.06623 4.95351 1.7768 0. 1
</event>
<event>
 4 80 1 -1 -1 -1
 11 -1 0 0 0 0 0 0 5 5 0 0. 9.
 -11 -1 0 0 0 0 0 0 -5 5 0 0. 9.
 15 1 1 2 0 0 -2.99162 -3.37836 1.21621 5 1.7768 0. -1
 -15 1 1 2 0 0 2.99162 3.37836 -1.21621 5 1.7768 0. 1
</event>
<event>
 4 80 1 -1 -1 -1
 11 -1 0 0 0 0 0 0 4.53312 4.53312 0 0. 9.
 -11 -1 0 0 0 0 0 0 -4.99517 4.99517 0 0. 9.
 15 1 1 2 0 0 -2.5126 0.474153 3.37154 4.58944 1.7768 0. -1
 -15 1 1 2 0 0 2.5126 -0.474153 -3.83359 4.93884 1.7768 0. 1
</event>
<event>
 4 80 1 -1 -1 -1
 11 -1 0 0 0 0 0 0 4.97819 4.97819 0 0. 9.
 -11 -1 0 0 0 0 0 0 -5 5 0 0. 9.
 15 1 1 2 0 0 4.57383 -0.0642248 0.888625 4.98713 1.7768 0. -1
 -15 1 1 2 0 0 -4.57383 0.0642248 -0.910433 4.99106 1.7768 0. 1
</event>
<event>
 4 80 1 -1 -1 -1
 11 -1 0 0 0 0 0 0 1.10176 1.10176 0 0. 9.
 -11 -1 0 0 0 0 0 0 -4.9892 4.9892 0 0. 9.
 15 1 1 2 0 0 1.26571 -0.69307 -2.60198 3.4656 1.7768 0. 1
 -15 1 1 2 0 0 -1.26571 0.69307 -1.28546 2.62536 1.7768 0. -1
</event>
<event>
 4 80 1 -1 -1 -1
 11 -1 0 0 0 0 0 0 2.43518 2.43518 0 0. 9.
 -11 -1 0 0 0 0 0 0 -5 5 0 0. 9.
 15 1 1 2 0 0 -1.2832 -1.47277 -3.71247 4.55586 1.7768 0. 1
 -15 1 1 2 0 0 1.2832 1.47277 1.14765 2.87932 1.7768 0. -1
</event>
<event>
 4 80 1 -1 -1 -1
 11 -1 0 0 0 0 0 0 4.97114 4.97114 0 0. 9.
 -11 -1 0 0 0 0 0 0 -5 5 0 0. 9.
 15 1 1 2 0 0 -1.46835 -1.04206 4.28163 4.97313 1.7768 0. 1
 -15 1 1 2 0 0 1.46835 1.04206 -4.31049 4.998 1.7768 0. -1
</event>
<event>
 4 80 1 -1 -1 -1
 11 -1 0 0 0 0 0 0 5 5 0 0. 9.
 -11 -1 0 0 0 0 0 0 -5 5 0 0. 9.
 15 1 1 2 0 0 -0.607093 -0.294064 4.62463 5 1.7768 0. 1
 -15 1 1 2 0 0 0.607093 0.294064 -4.62463 5 1.7768 0. -1
</event>
<event>
 4 80 1 -1 -1 -1
 11 -1 0 0 0 0 0 0 4.72611 4.72611 0 0. 9.
 -11 -1 0 0 0 0 0 0 -4.99996 4.99996 0 0. 9.
 15 1 1 2 0 0 0.943329 -4.40158 -0.594113 4.87591 1.7768 0. -1
 -15 1 1 2 0 0 -0.943329 4.40158 0.320259 4.85017 1.7768 0. 1
</event>
<event>
 4 80 1 -1 -1 -1
 11 -1 0 0 0 0 0 0 5 5 0 0. 9.
 -11 -1 0 0 0 0 0 0 -2.03393 2.03393 0 0. 9.
 15 1 1 2 0 0 0.392593 0.0109409 4.37108 4.73479 1.7768 0. -1
 -15 1 1 2 0 0 -0.392593 -0.0109409 -1.405 2.29913 1.7768 0. 1
</event>
<event>
 4 80 1 -1 -1 -1
 11 -1 0 0 0 0 0 0 5 5 0 0. 9.
 -11 -1 0 0 0 0 0 0 -5 5 0 0. 9.
 15 1 1 2 0 0 -1.95358 2.4574 -3.46222 5 1.7768 0. -1
 -15 1 1 2 0 0 1.95358 -2.4574 3.46222 5 1.7768 0. 1
</event>
<event>
 4 80 1 -1 -1 -1
 11 -1 0 0 0 0 0 0 5 5 0 0. 9.
 -11 -1 0 0 0 0 0 0 -5 5 0 0. 9.
 15 1 1 2 0 0 -1.28784 3.78294 -2.42345 5 1.7768 0. -1
 -15 1 1 2 0 0 1.28784 -3.78294 2.42345 5 1.7768 0. 1
</event>
<event>
 4 80 1 -1 -1 -1
 11 -1 0 0 0 0 0 0 5 5 0 0. 9.
 -11 -1 0 0 0 0 0 0 -3.60983 3.60983 0 0. 9.
 15 1 1 2 0 0 2.11564 -3.02876 -0.434227 4.12258 1.7768 0. 1
 -15 1 1 2 0 0 -2.11564 3.02876 1.82439 4.48726 1.7768 0. -1
</event>
<event>
 4 80 1 -1 -1 -1
 11 -1 0 0 0 0 0 0 4.96867 4.96867 0 0. 9.
 -11 -1 0 0 0 0 0 0 -4.99999 4.99999 0 0. 9.
 15 1 1 2 0 0 2.41262 -3.9658 0.3549 4.98317 1.7768 0. 1
 -15 1 1 2 0 0 -2.41262 3.9658 -0.386217 4.9855 1.7768 0. -1
</event>
<event>
 4 80 1 -1 -1 -1
 11 -1 0 0 0 0 0 0 5 5 0 0. 9.
 -11 -1 0 0 0 0 0 0 -4.99974 4.99974 0 0. 9.
 15 1 1 2 0 0 -0.22587 3.7776 -2.74208 4.9998 1.7768 0. -1
 -15 1 1 2 0 0 0.22587 -3.7776 2.74234 4.99994 1.7768 0. 1
</event>
<event>
 4 80 1 -1 -1 -1
 11 -1 0 0 0 0 0 0 5 5 0 0. 9.
 -11 -1 0 0 0 0 0 0 -4.99894 4.99894 0 0. 9.
 15 1 1 2 0 0 0.587163 -4.61809 0.40731 4.99951 1.7768 0. 1
 -15 1 1 2 0 0 -0.587163 4.61809 -0.406246 4.99942 1.7768 0. -1
</event>
<event>
 4 80 1 -1 -1 -1
 11 -1 0 0 0 0 0 0 5 5 0 0. 9.
 -11 -1 0 0 0 0 0 0 -5 5 0 0. 9.
 15 1 1 2 0 0 3.55477 2.77626 -1.22401 5 1.7768 0. 1
 -15 1 1 2 0 0 -3.55477 -2.77626 1.22401 5 1.7768 0. -1
</event>
<event>
 4 80 1 -1 -1 -1
 11 -1 0 0 0 0 0 0 4.95814 4.95814 0 0. 9.
 -11 -1 0 0 0 0 0 0 -3.91991 3.91991 0 0. 9.
 15 1 1 2 0 0 -0.479597 2.755 3.44742 4.78147 1.7768 0. -1
 -15 1 1 2 0 0 0.479597 -2.755 -2.40919 4.09658 1.7768 0. 1
</event>
<event>
 4 80 1 -1 -1 -1
 11 -1 0 0 0 0 0 0 5 5 0 0. 9.
 -11 -1 0 0 0 0 0 0 -4.99812 4.99812 0 0. 9.
 15 1 1 2 0 0 0.000441056 3.72148 2.82643 4.99959 1.7768 0. 1
 -15 1 1 2 0 0 -0.000441056 -3.72148 -2.82455 4.99853 1.7768 0. -1
</event>
<event>
 4 80 1 -1 -1 -1
 11 -1 0 0 0 0 0 0 4.9999 4.9999 0 0. 9.
 -11 -1 0 0 0 0 0 0 -5 5 0 0. 9.
 15 1 1 2 0 0 -1.32638 -4.39264 0.887191 4.99994 1.7768 0. 1
 -15 1 1 2 0 0 1.32638 4.39264 -0.887284 4.99996 1.7768 0. -1
</event>
<event>
 4 80 1 -1 -1 -1
 11 -1 0 0 0 0 0 0 4.99998 4.99998 0 0. 9.
 -11 -1 0 0 0 0 0 0 -5 5 0 0. 9.
 15 1 1 2 0 0 -3.53791 2.85372 -1.08706 4.99999 1.7768 0. -1
 -15 1 1 2 0 0 3.53791 -2.85372 1.08704 4.99999 1.7768 0. 1
</event>
<event>
 4 80 1 -1 -1 -1
 11 -1 0 0 0 0 0 0 4.94987 4.94987 0 0. 9.
 -11 -1 0 0 0 0 0 0 -4.99994 4.99994 0 0. 9.
 15 1 1 2 0 0 -3.77329 1.84818 1.95939 4.96492 1.7768 0. 1
 -15 1 1 2 0 0 3.77329 -1.84818 -2.00946 4.98489 1.7768 0. -1
</event>
<event>
 4 80 1 -1 -1 -1
 11 -1 0 0 0 0 0 0 5 5 0 0. 9.
 -11 -1 0 0 0 0 0 0 -4.79393 4.79393 0 0. 9.
 15 1 1 2 0 0 3.2914 -1.73015 2.74658 4.95259 1.7768 0. 1
 -15 1 1 2 0 0 -3.2914 1.73015 -2.54051 4.84134 1.7768 0. -1
</event>
<event>
 4 80 1 -1 -1 -1
 11 -1 0 0 0 0 0 0 5 5 0 0. 9.
 -11 -1 0 0 0 0 0 0 -4.5746 4.5746 0 0. 9.
 15 1 1 2 0 0 2.46599 2.20238 -2.75396 4.6555 1.7768 0. 1
 -15 1 1 2 0 0 -2.46599 -2.20238 3.17936 4.91911 1.7768 0. -1
</event>
<event>
 4 80 1 -1 -1 -1
 11 -1 0 0 0 0 0 0 5 5 0 0. 9.
 -11 -1 0 0 0 0 0 0 -5 5 0 0. 9.
 15 1 1 2 0 0 -0.261173 -3.93386 2.50975 5 1.7768 0. 1
 -15 1 1 2 0 0 0.261173 3.93386 -2.50975 5 1.7768 0. -1
</event>
<event>
 4 80 1 -1 -1 -1
 11 -1 0 0 0 0 0 0 4.98415 4.98415 0 0. 9.
 -11 -1 0 0 0 0 0 0 -1.96094 1.96094 0 0. 9.
 15 1 1 2 0 0 -0.481972 0.638955 -1.20359 2.29062 1.7768 0. 1
 -15 1 1 2 0 0 0.481972 -0.638955 4.22681 4.65448 1.7768 0. -1
</event>
<event>
 4 80 1 -1 -1 -1
 11 -1 0 0 0 0 0 0 5 5 0 0. 9.
 -11 -1 0 0 0 0 0 0 -4.99899 4.99899 0 0. 9.
 15 1 1 2 0 0 -3.90391 -1.24486 2.24707 4.99972 1.7768 0. 1
 -15 1 1 2 0 0 3.90391 1.24486 -2.24605 4.99927 1.7768 0. -1
</event>
<event>
 4 80 1 -1 -1 -1
 11 -1 0 0 0 0 0 0 5 5 0 0. 9.
 -11 -1 0 0 0 0 0 0 -5 5 0 0. 9.
 15 1 1 2 0 0 4.37147 -1.0624 -1.26644 5 1.7768 0. 1
 -15 1 1 2 0 0 -4.37147 1.0624 1.26644 5 1.7768 0. -1
</event>
<event>
 4 80 1 -1 -1 -1
 11 -1 0 0 0 0 0 0 5 5 0 0. 9.
 -11 -1 0 0 0 0 0 0 -5 5 0 0. 9.
 15 1 1 2 0 0 0.898935 -1.57085 4.3089 5 1.7768 0. 1
 -15 1 1 2 0 0 -0.898935 1.57085 -4.3089 5 1.7768 0. -1
</event>
<event>
 4 80 1 -1 -1 -1
 11 -1 0 0 0 0 0 0 5 5 0 0. 9.
 -11 -1 0 0 0 0 0 0 -5 5 0 0. 9.
 15 1 1 2 0 0 3.70333 -1.36895 -2.50071 5 1.7768 0. 1
 -15 1 1 2 0 0 -3.70333 1.36895 2.50071 5 1.7768 0. -1
</event>
<event>
 4 80 1 -1 -1 -1
 11 -1 0 0 0 0 0 0 5 5 0 0. 9.
 -11 -1 0 0 0 0 0 0 -4.99999 4.99999 0 0. 9.
 15 1 1 2 0 0 -2.39258 -1.51064 3.71964 5 1.7768 0. -1
 -15 1 1 2 0 0 2.39258 1.51064 -3.71963 4.99999 1.7768 0. 1
</event>
<event>
 4 80 1 -1 -1 -1
 11 -1 0 0 0 0 0 0 5 5 0 0. 9.
 -11 -1 0 0 0 0 0 0 -5 5 0 0. 9.
 15 1 1 2 0 0 -2.15325 -1.48316 3.87376 5 1.7768 0. -1
 -15 1 1 2 0 0 2.15325 1.48316 -3.87376 5 1.7768 0. 1
</event>
<event>
 4 80 1 -1 -1 -1
 11 -1 0 0 0 0 0 0 0.948657 0.948657 0 0. 9.
 -11 -1 0 0 0 0 0 0 -5 5 0 0. 9.
 15 1 1 2 0 0 -0.199603 1.23875 -2.17036 3.07287 1.7768 0. 1
 -15 1 1 2 0 0 0.199603 -1.23875 -1.88098 2.87579 1.7768 0. -1
</event>
<event>
 4 80 1 -1 -1 -1
 11 -1 0 0 0 0 0 0 5 5 0 0. 9.
 -11 -1 0 0 0 0 0 0 -5 5 0 0. 9.
 15 1 1 2 0 0 -4.50728 1.17393 0.385432 5 1.7768 0. -1
 -15 1 1 2 0 0 4.50728 -1.17393 -0.385432 5 1.7768 0. 1
</event>
<event>
 4 80 1 -1 -1 -1
 11 -1 0 0 0 0 0 0 5 5 0 0. 9.
 -11 -1 0 0 0 0 0 0 -5 5 0 0. 9.
 15 1 1 2 0 0 -0.908123 0.860058 -4.5031 5 1.7768 0. 1
 -15 1 1 2 0 0 0.908123 -0.860058 4.5031 5 1.7768 0. -1
</event>
<event>
 4 80 1 -1 -1 -1
 11 -1 0 0 0 0 0 0 4.9361 4.9361 0 0. 9.
 -11 -1 0 0 0 0 0 0 -4.80585 4.80585 0 0. 9.
 15 1 1 2 0 0 0.287966 1.05704 4.466 4.92982 1.7768 0. -1
 -15 1 1 2 0 0 -0.287966 -1.05704 -4.33574 4.81213 1.7768 0. 1
</event>
<event>
 4 80 1 -1 -1 -1
 11 -1 0 0 0 0 0 0 5 5 0 0. 9.
 -11 -1 0 0 0 0 0 0 -5 5 0 0. 9.
 15 1 1 2 0 0 -2.62124 -3.80513 0.701665 5 1.7768 0. -1
 -15 1 1 2 0 0 2.62124 3.80513 -0.701665 5 1.7768 0. 1
</event>
<event>
 4 80 1 -1 -1 -1
 11 -1 0 0 0 0 0 0 4.85281 4.85281 0 0. 9.
 -11 -1 0 0 0 0 0 0 -4.99999 4.99999 0 0. 9.
 15 1 1 2 0 0 1.01884 -3.02625 3.22982 4.87705 1.7768 0. 1
 -15 1 1 2 0 0 -1.01884 3.02625 -3.377 4.97575 1.7768 0. -1
</event>
<event>
 4 80 1 -1 -1 -1
 11 -1 0 0 0 0 0 0 4.05999 4.05999 0 0. 9.
 -11 -1 0 0 0 0 0 0 -5 5 0 0. 9.
 15 1 1 2 0 0 -3.72048 -0.917604 -2.04639 4.69355 1.7768 0. 1
 -15 1 1 2 0 0 3.72048 0.917604 1.10638 4.36644 1.7768 0. -1
</event>
<event>
 4 80 1 -1 -1 -1
 11 -1 0 0 0 0 0 0 4.55144 4.55144 0 0. 9.
 -11 -1 0 0 0 0 0 0 -5 5 0 0. 9.
 15 1 1 2 0 0 0.703612 0.081574 -4.5992 4.98118 1.7768 0. -1
 -15 1 1 2 0 0 -0.703612 -0.081574 4.15065 4.57027 1.7768 0. 1
</event>
<event>
 4 80 1 -1 -1 -1
 11 -1 0 0 0 0 0 0 4.99948 4.99948 0 0. 9.
 -11 -1 0 0 0 0 0 0 -4.96418 4.96418 0 0. 9.
 15 1 1 2 0 0 -1.84416 -3.46392 2.51984 4.99069 1.7768 0. 1
 -15 1 1 2 0 0 1.84416 3.46392 -2.48454 4.97297 1.7768 0. -1
</event>
<event>
 4 80 1 -1 -1 -1
 11 -1 0 0 0 0 0 0 5 5 0 0. 9.
 -11 -1 0 0 0 0 0 0 -5 5 0 0. 9.
 15 1 1 2 0 0 0.544565 -2.99594 3.54543 5 1.7768 0. -1
 -15 1 1 2 0 0 -0.544565 2.99594 -3.54543 5 1.7768 0. 1
</event>
<event>
 4 80 1 -1 -1 -1
 11 -1 0 0 0 0 0 0 4.79832 4.79832 0 0. 9.
 -11 -1 0 0 0 0 0 0 -4.99998 4.99998 0 0. 9.
 15 1 1 2 0 0 4.06689 1.75919 -1.19625 4.9217 1.7768 0. 1
 -15 1 1 2 0 0 -4.06689 -1.75919 0.994594 4.87661 1.7768 0. -1
</event>
<event>
 4 80 1 -1 -1 -1
 11 -1 0 0 0 0 0 0 5 5 0 0. 9.
 -11 -1 0 0 0 0 0 0 -5 5 0 0. 9.
 15 1 1 2 0 0 -1.79203 -2.64548 -3.41062 5 1.7768 0. 1
 -15 1 1 2 0 0 1.79203 2.64548 3.41062 5 1.7768 0. -1
</event>
<event>
 4 80 1 -1 -1 -1
 11 -1 0 0 0 0 0 0 5 5 0 0. 9.
 -11 -1 0 0 0 0 0 0 -4.87223 4.87223 0 0. 9.
 15 1 1 2 0 0 -2.48142 2.7566 2.79306 4.97144 1.7768 0. 1
 -15 1 1 2 0 0 2.48142 -2.7566 -2.66528 4.90079 1.7768 0. -1
</event>
<event>
 4 80 1 -1 -1 -1
 11 -1 0 0 0 0 0 0 4.97766 4.97766 0 0. 9.
 -11 -1 0 0 0 0 0 0 -4.97323 4.97323 0 0. 9.
 15 1 1 2 0 0 2.7562 -2.37111 2.89678 4.97673 1.7768 0. -1
 -15 1 1 2 0 0 -2.7562 2.37111 -2.89235 4.97416 1.7768 0. 1
</event>
<event>
 4 80 1 -1 -1 -1
 11 -1 0 0 0 0 0 0 4.98225 4.98225 0 0. 9.
 -11 -1 0 0 0 0 0 0 -4.92832 4.92832 0 0. 9.
 15 1 1 2 0 0 3.4297 -1.71811 2.6119 4.96935 1.7768 0. 1
 -15 1 1 2 0 0 -3.4297 1.71811 -2.55796 4.94122 1.7768 0. -1
</event>
<event>
 4 80 1 -1 -1 -1
 11 -1 0 0 0 0 0 0 2.75006 2.75006 0 0. 9.
 -11 -1 0 0 0 0 0 0 -5 5 0 0. 9.
 15 1 1 2 0 0 -1.31564 2.2806 -3.12433 4.45547 1.7768 0. 1
 -15 1 1 2 0 0 1.31564 -2.2806 0.874386 3.29459 1.7768 0. -1
</event>
<event>
 4 80 1 -1 -1 -1
 11 -1 0 0 0 0 0 0 4.99998 4.99998 0 0. 9.
 -11 -1 0 0 0 0 0 0 -5 5 0 0. 9.
 15 1 1 2 0 0 -0.988474 -4.14954 -1.90956 4.99999 1.7768 0. 1
 -15 1 1 2 0 0 0.988474 4.14954 1.90955 4.99999 1.7768 0. -1
</event>
<event>
 4 80 1 -1 -1 -1
 11 -1 0 0 0 0 0 0 5 5 0 0. 9.
 -11 -1 0 0 0 0 0 0 -5 5 0 0. 9.
 15 1 1 2 0 0 1.01927 4.49555 0.770281 5 1.7768 0. 1
 -15 1 1 2 0 0 -1.01927 -4.49555 -0.770284 5 1.7768 0. -1
</event>
<event>
 4 80 1 -1 -1 -1
 11 -1 0 0 0 0 0 0 5 5 0 0. 9.
 -11 -1 0 0 0 0 0 0 -4.99998 4.99998 0 0. 9.
 15 1 1 2 0 0 3.53323 -2.38519 1.91555 4.99999 1.7768 0. -1
 -15 1 1 2 0 0 -3.53323 2.38519 -1.91553 4.99998 1.7768 0. 1
</event>
<event>
 4 80 1 -1 -1 -1
 11 -1 0 0 0 0 0 0 4.99995 4.99995 0 0. 9.
 -11 -1 0 0 0 0 0 0 -5 5 0 0. 9.
 15 1 1 2 0 0 -3.10056 3.42019 0.728569 4.99997 1.7768 0. 1
 -15 1 1 2 0 0 3.10056 -3.42019 -0.728614 4.99998 1.7768 0. -1
</event>
<event>
 4 80 1 -1 -1 -1
 11 -1 0 0 0 0 0 0 2.37351 2.37351 0 0. 9.
 -11 -1 0 0 0 0 0 0 -5 5 0 0. 9.
 15 1 1 2 0 0 0.699805 -2.55741 -2.70027 4.18082 1.7768 0. -1
 -15 1 1 2 0 0 -0.699805 2.55741 0.0737774 3.19269 1.7768 0. 1
</event>
<event>
 4 80 1 -1 -1 -1
 11 -1 0 0 0 0 0 0 5 5 0 0. 9.
 -11 -1 0 0 0 0 0 0 -4.9767 4.9767 0 0. 9.
 15 1 1 2 0 0 -2.52001 -1.85478 3.46638 4.99642 1.7768 0. -1
 -15 1 1 2 0 0 2.52001 1.85478 -3.44309 4.98028 1.7768 0. 1
</event>
<event>
 4 80 1 -1 -1 -1
 11 -1 0 0 0 0 0 0 5 5 0 0. 9.
 -11 -1 0 0 0 0 0 0 -5 5 0 0. 9.
 15 1 1 2 0 0 -4.20951 1.31436 1.54749 5 1.7768 0. 1
 -15 1 1 2 0 0 4.20951 -1.31436 -1.54749 5 1.7768 0. -1
</event>
<event>
 4 80 1 -1 -1 -1
 11 -1 0 0 0 0 0 0 4.99999 4.99999 0 0. 9.
 -11 -1 0 0 0 0 0 0 -4.99992 4.99992 0 0. 9.
 15 1 1 2 0 0 -3.01342 0.938884 3.44671 4.99998 1.7768 0. 1
 -15 1 1 2 0 0 3.01342 -0.938884 -3.44665 4.99993 1.7768 0. -1
</event>
<event>
 4 80 1 -1 -1 -1
 11 -1 0 0 0 0 0 0 5 5 0 0. 9.
 -11 -1 0 0 0 0 0 0 -5 5 0 0. 9.
 15 1 1 2 0 0 -1.85056 0.411134 4.27185 5 1.7768 0. -1
 -15 1 1 2 0 0 1.85056 -0.411134 -4.27185 5 1.7768 0. 1
</event>
<event>
 4 80 1 -1 -1 -1
 11 -1 0 0 0 0 0 0 5 5 0 0. 9.
 -11 -1 0 0 0 0 0 0 -4.999 4.999 0 0. 9.
 15 1 1 2 0 0 0.590598 -4.59633 -0.601399 4.99944 1.7768 0. -1
 -15 1 1 2 0 0 -0.590598 4.59633 0.602395 4.99956 1.7768 0. 1
</event>
<event>
 4 80 1 -1 -1 -1
 11 -1 0 0 0 0 0 0 5 5 0 0. 9.
 -11 -1 0 0 0 0 0 0 -5 5 0 0. 9.
 15 1 1 2 0 0 3.29676 2.46387 2.21426 5 1.7768 0. 1
 -15 1 1 2 0 0 -3.29676 -2.46387 -2.21426 5 1.7768 0. -1
</event>
<event>
 4 80 1 -1 -1 -1
 11 -1 0 0 0 0 0 0 3.98969 3.98969 0 0. 9.
 -11 -1 0 0 0 0 0 0 -4.48163 4.48163 0 0. 9.
 15 1 1 2 0 0 -3.57041 0.230555 1.1426 4.15503 1.7768 0. -1
 -15 1 1 2 0 0 3.57041 -0.230555 -1.63454 4.3163 1.7768 0. 1
</event>
<event>
 4 80 1 -1 -1 -1
 11 -1 0 0 0 0 0 0 4.96777 4.96777 0 0. 9.
 -11 -1 0 0 0 0 0 0 -4.99993 4.99993 0 0. 9.
 15 1 1 2 0 0 3.44807 -2.78806 -1.43675 4.98843 1.7768 0. 1
 -15 1 1 2 0 0 -3.44807 2.78806 1.40459 4.97927 1.7768 0. -1
</event>
<event>
 4 80 1 -1 -1 -1
 11 -1 0 0 0 0 0 0 5 5 0 0. 9.
 -11 -1 0 0 0 0 0 0 -5 5 0 0. 9.
 15 1 1 2 0 0 2.56701 0.183612 -3.90116 5 1.7768 0. -1
 -15 1 1 2 0 0 -2.56701 -0.183612 3.90116 5 1.7768 0. 1
</event>
<event>
 4 80 1 -1 -1 -1
 11 -1 0 0 0 0 0 0 5 5 0 0. 9.
 -11 -1 0 0 0 0 0 0 -4.99985 4.99985 0 0. 9.
 15 1 1 2 0 0 -1.60634 2.292 3.74279 4.99998 1.7768 0. -1
 -15 1 1 2 0 0 1.60634 -2.292 -3.74265 4.99987 1.7768 0. 1
</event>
<event>
 4 80 1 -1 -1 -1
 11 -1 0 0 0 0 0 0 5 5 0 0. 9.
 -11 -1 0 0 0 0 0 0 -4.99974 4.99974 0 0. 9.
 15 1 1 2 0 0 -2.4088 3.5413 1.87037 4.99992 1.7768 0. 1
 -15 1 1 2 0 0 2.4088 -3.5413 -1.87011 4.99982 1.7768 0. -1
</event>
<event>
 4 80 1 -1 -1 -1
 11 -1 0 0 0 0 0 0 5 5 0 0. 9.
 -11 -1 0 0 0 0 0 0 -5 5 0 0. 9.
 15 1 1 2 0 0 -0.593321 4.63337 0.148792 5 1.7768 0. 1
 -15 1 1 2 0 0 0.593321 -4.63337 -0.148793 5 1.7768 0. -1
</event>
<event>
 4 80 1 -1 -1 -1
 11 -1 0 0 0 0 0 0 5 5 0 0. 9.
 -11 -1 0 0 0 0 0 0 -4.99691 4.99691 0 0. 9.
 15 1 1 2 0 0 -4.26883 -0.0613517 1.89896 4.99904 1.7768 0. -1
 -15 1 1 2 0 0 4.26883 0.0613517 -1.89588 4.99787 1.7768 0. 1
</event>
<event>
 4 80 1 -1 -1 -1
 11 -1 0 0 0 0 0 0 5 5 0 0. 9.
 -11 -1 0 0 0 0 0 0 -4.295 4.295 0 0. 9.
 15 1 1 2 0 0 4.03913 1.40576 0.189112 4.63511 1.7768 0. 1
 -15 1 1 2 0 0 -4.03913 -1.40576 0.515888 4.65989 1.7768 0. -1
</event>
<event>
 4 80 1 -1 -1 -1
 11 -1 0 0 0 0 0 0 4.99209 4.99209 0 0. 9.
 -11 -1 0 0 0 0 0 0 -4.962 4.962 0 0. 9.
 15 1 1 2 0 0 0.060386 0.928641 4.56996 4.99082 1.7768 0. -1
 -15 1 1 2 0 0 -0.060386 -0.928641 -4.53987 4.96328 1.7768 0. 1
</event>
<event>
 4 80 1 -1 -1 -1
 11 -1 0 0 0 0 0 0 5 5 0 0. 9.
 -11 -1 0 0 0 0 0 0 -4.99986 4.99986 0 0. 9.
 15 1 1 2 0 0 2.93661 2.57147 2.57018 4.99996 1.7768 0. 1
 -15 1 1 2 0 0 -2.93661 -2.57147 -2.57003 4.99989 1.7768 0. -1
</event>
<event>
 4 80 1 -1 -1 -1
 11 -1 0 0 0 0 0 0 5 5 0 0. 9.
 -11 -1 0 0 0 0 0 0 -4.87658 4.87658 0 0. 9.
 15 1 1 2 0 0 2.27443 0.892894 3.96776 4.9871 1.7768 0. -1
 -15 1 1 2 0 0 -2.27443 -0.892894 -3.84434 4.88948 1.7768 0. 1
</event>
<event>
 4 80 1 -1 -1 -1
 11 -1 0 0 0 0 0 0 4.99534 4.99534 0 0. 9.
 -11 -1 0 0 0 0 0 0 -4.99985 4.99985 0 0. 9.
 15 1 1 2 0 0 3.05739 -3.27108 -1.33289 4.99819 1.7768 0. -1
 -15 1 1 2 0 0 -3.05739 3.27108 1.32838 4.99699 1.7768 0. 1
</event>
<event>
 4 80 1 -1 -1 -1
 11 -1 0 0 0 0 0 0 4.9992 4.9992 0 0. 9.
 -11 -1 0 0 0 0 0 0 -5 5 0 0. 9.
 15 1 1 2 0 0 0.874511 -4.44355 1.15213 4.99951 1.7768 0. -1
 -15 1 1 2 0 0 -0.874511 4.44355 -1.15293 4.99969 1.7768 0. 1
</event>
<event>
 4 80 1 -1 -1 -1
 11 -1 0 0 0 0 0 0 1.73508 1.73508 0 0. 9.
 -11 -1 0 0 0 0 0 0 -4.99461 4.99461 0 0. 9.
 15 1 1 2 0 0 -1.86662 0.431573 -3.1793 4.11536 1.7768 0. 1
 -15 1 1 2 0 0 1.86662 -0.431573 -0.0802248 2.61432 1.7768 0. -1
</event>
<event>
 4 80 1 -1 -1 -1
 11 -1 0 0 0 0 0 0 5 5 0 0. 9.
 -11 -1 0 0 0 0 0 0 -5 5 0 0. 9.
 15 1 1 2 0 0 -4.06022 -1.10815 2.03197 5 1.7768 0. 1
 -15 1 1 2 0 0 4.06022 1.10815 -2.03197 5 1.7768 0. -1
</event>
<event>
 4 80 1 -1 -1 -1
 11 -1 0 0 0 0 0 0 4.99553 4.99553 0 0. 9.
 -11 -1 0 0 0 0 0 0 -5 5 0 0. 9.
 15 1 1 2 0 0 -1.09386 -2.41836 -3.84606 4.99948 1.7768 0. 1
 -15 1 1 2 0 0 1.09386 2.41836 3.84159 4.99605 1.7768 0. -1
</event>
<event>
 4 80 1 -1 -1 -1
 11 -1 0 0 0 0 0 0 4.95241 4.95241 0 0. 9.
 -11 -1 0 0 0 0 0 0 -4.99917 4.99917 0 0. 9.
 15 1 1 2 0 0 4.48812 1.05049 -0.617913 4.97858 1.7768 0. 1
 -15 1 1 2 0 0 -4.48812 -1.05049 0.571149 4.973 1.7768 0. -1
</event>
<event>
 4 80 1 -1 -1 -1
 11 -1 0 0 0 0 0 0 5 5 0 0. 9.
 -11 -1 0 0 0 0 0 0 -5 5 0 0. 9.
 15 1 1 2 0 0 -1.65781 2.58202 -3.52521 5 1.7768 0. 1
 -15 1 1 2 0 0 1.65781 -2.58202 3.52521 5 1.7768 0. -1
</event>
<event>
 4 80 1 -1 -1 -1
 11 -1 0 0 0 0 0 0 1.03451 1.03451 0 0. 9.
 -11 -1 0 0 0 0 0 0 -5 5 0 0. 9.
 15 1 1 2 0 0 1.22021 -0.549814 -2.61007 3.42949 1.7768 0. -1
 -15 1 1 2 0 0 -1.22021 0.549814 -1.35542 2.60501 1.7768 0. 1
</event>
<event>
 4 80 1 -1 -1 -1
 11 -1 0 0 0 0 0 0 4.99801 4.99801 0 0. 9.
 -11 -1 0 0 0 0 0 0 -4.99326 4.99326 0 0. 9.
 15 1 1 2 0 0 -0.0331799 -3.42128 3.17923 4.99714 1.7768 0. 1
 -15 1 1 2 0 0 0.0331799 3.42128 -3.17448 4.99413 1.7768 0. -1
</event>
<event>
 4 80 1 -1 -1 -1
 11 -1 0 0 0 0 0 0 5 5 0 0. 9.
 -11 -1 0 0 0 0 0 0 -4.99998 4.99998 0 0. 9.
 15 1 1 2 0 0 -1.55234 -0.232883 4.40208 5 1.7768 0. -1
 -15 1 1 2 0 0 1.55234 0.232883 -4.40206 4.99999 1.7768 0. 1
</event>
<event>
 4 80 1 -1 -1 -1
 11 -1 0 0 0 0 0 0 3.87476 3.87476 0 0. 9.
 -11 -1 0 0 0 0 0 0 -4.9984 4.9984 0 0. 9.
 15 1 1 2 0 0 2.00939 -0.566542 -4.03232 4.87606 1.7768 0. -1
 -15 1 1 2 0 0 -2.00939 0.566542 2.90868 3.9971 1.7768 0. 1
</event>
<event>
 4 80 1 -1 -1 -1
 11 -1 0 0 0 0 0 0 5 5 0 0. 9.
 -11 -1 0 0 0 0 0 0 -4.97635 4.97635 0 0. 9.
 15 1 1 2 0 0 1.3288 3.23105 3.09706 4.99549 1.7768 0. -1
 -15 1 1 2 0 0 -1.3288 -3.23105 -3.07341 4.98086 1.7768 0. 1
</event>
<event>
 4 80 1 -1 -1 -1
 11 -1 0 0 0 0 0 0 5 5 0 0. 9.
 -11 -1 0 0 0 0 0 0 -3.25786 3.25786 0 0. 9.
 15 1 1 2 0 0 1.06108 0.826783 4.31338 4.85515 1.7768 0. 1
 -15 1 1 2 0 0 -1.06108 -0.826783 -2.57124 3.40272 1.7768 0. -1
</event>
<event>
 4 80 1 -1 -1 -1
 11 -1 0 0 0 0 0 0 1.27105 1.27105 0 0. 9.
 -11 -1 0 0 0 0 0 0 -5 5 0 0. 9.
 15 1 1 2 0 0 0.798184 1.58145 -1.56123 2.95521 1.7768 0. -1
 -15 1 1 2 0 0 -0.798184 -1.58145 -2.16772 3.31584 1.7768 0. 1
</event>
<event>
 4 80 1 -1 -1 -1
 11 -1 0 0 0 0 0 0 4.79844 4.79844 0 0. 9.
 -11 -1 0 0 0 0 0 0 -5 5 0 0. 9.
 15 1 1 2 0 0 -3.86169 -1.99262 1.29639 4.87048 1.7768 0. 1
 -15 1 1 2 0 0 3.86169 1.99262 -1.49795 4.92796 1.7768 0. -1
</event>
<event>
 4 80 1 -1 -1 -1
 11 -1 0 0 0 0 0 0 3.87876 3.87876 0 0. 9.
 -11 -1 0 0 0 0 0 0 -4.94695 4.94695 0 0. 9.
 15 1 1 2 0 0 -0.429024 3.11539 -3.03047 4.715 1.7768 0. 1
 -15 1 1 2 0 0 0.429024 -3.11539 1.96228 4.11072 1.7768 0. -1
</event>
<event>
 4 80 1 -1 -1 -1
 11 -1 0 0 0 0 0 0 5 5 0 0. 9.
 -11 -1 0 0 0 0 0 0 -5 5 0 0. 9.
 15 1 1 2 0 0 -1.89878 -2.95851 -3.07963 5 1.7768 0. -1
 -15 1 1 2 0 0 1.89878 2.95851 3.07963 5 1.7768 0. 1
</event>
<event>
 4 80 1 -1 -1 -1
 11 -1 0 0 0 0 0 0 1.8278 1.8278 0 0. 9.
 -11 -1 0 0 0 0 0 0 -5 5 0 0. 9.
 15 1 1 2 0 0 -0.119535 0.777723 1.02889 2.19897 1.7768 0. 1
 -15 1 1 2 0 0 0.119535 -0.777723 -4.20109 4.62882 1.7768 0. -1
</event>
<event>
 4 80 1 -1 -1 -1
 11 -1 0 0 0 0 0 0 5 5 0 0. 9.
 -11 -1 0 0 0 0 0 0 -5 5 0 0. 9.
 15 1 1 2 0 0 0.922678 4.50881 0.813344 5 1.7768 0. -1
 -15 1 1 2 0 0 -0.922678 -4.50881 -0.813344 5 1.7768 0. 1
</event>
<event>
 4 80 1 -1 -1 -1
 11 -1 0 0 0 0 0 0 4.2193 4.2193 0 0. 9.
 -11 -1 0 0 0 0 0 0 -4.95198 4.95198 0 0. 9.
 15 1 1 2 0 0 -2.27689 -2.60096 2.04698 4.39285 1.7768 0. -1
 -15 1 1 2 0 0 2.27689 2.60096 -2.77966 4.77844 1.7768 0. 1
</event>
<event>
 4 80 1 -1 -1 -1
 11 -1 0 0 0 0 0 0 5 5 0 0. 9.
 -11 -1 0 0 0 0 0 0 -5 5 0 0. 9.
 15 1 1 2 0 0 0.180357 -4.34773 -1.70498 5 1.7768 0. 1
 -15 1 1 2 0 0 -0.180357 4.34773 1.70498 5 1.7768 0. -1
</event>
<event>
 4 80 1 -1 -1 -1
 11 -1 0 0 0 0 0 0 5 5 0 0. 9.
 -11 -1 0 0 0 0 0 0 -5 5 0 0. 9.
 15 1 1 2 0 0 -2.692 3.80843 -0.302105 5 1.7768 0. -1
 -15 1 1 2 0 0 2.692 -3.80843 0.302105 5 1.7768 0. 1
</event>
<event>
 4 80 1 -1 -1 -1
 11 -1 0 0 0 0 0 0 5 5 0 0. 9.
 -11 -1 0 0 0 0 0 0 -5 5 0 0. 9.
 15 1 1 2 0 0 1.08955 -1.25976 4.36671 5 1.7768 0. 1
 -15 1 1 2 0 0 -1.08955 1.25976 -4.36671 5 1.7768 0. -1
</event>
<event>
 4 80 1 -1 -1 -1
 11 -1 0 0 0 0 0 0 3.92034 3.92034 0 0. 9.
 -11 -1 0 0 0 0 0 0 -4.97471 4.97471 0 0. 9.
 15 1 1 2 0 0 -0.340138 -0.326594 3.5166 3.96819 1.7768 0. -1
 -15 1 1 2 0 0 0.340138 0.326594 -4.57097 4.92685 1.7768 0. 1
</event>
<event>
 4 80 1 -1 -1 -1
 11 -1 0 0 0 0 0 0 5 5 0 0. 9.
 -11 -1 0 0 0 0 0 0 -4.37052 4.37052 0 0. 9.
 15 1 1 2 0 0 0.564821 3.23972 -2.49876 4.49626 1.7768 0. 1
 -15 1 1 2 0 0 -0.564821 -3.23972 3.12824 4.87426 1.7768 0. -1
</event>
<event>
 4 80 1 -1 -1 -1
 11 -1 0 0 0 0 0 0 4.9973 4.9973 0 0. 9.
 -11 -1 0 0 0 0 0 0 -4.99969 4.99969 0 0. 9.
 15 1 1 2 0 0 0.326835 1.1819 4.50696 4.99742 1.7768 0. -1
 -15 1 1 2 0 0 -0.326835 -1.1819 -4.50936 4.99957 1.7768 0. 1
</event>
<event>
 4 80 1 -1 -1 -1
 11 -1 0 0 0 0 0 0 5 5 0 0. 9.
 -11 -1 0 0 0 0 0 0 -5 5 0 0. 9.
 15 1 1 2 0 0 -4.14554 -0.960128 1.9326 5 1.7768 0. 1
 -15 1 1 2 0 0 4.14554 0.960128 -1.9326 5 1.7768 0. -1
</event>
<event>
 4 80 1 -1 -1 -1
 11 -1 0 0 0 0 0 0 5 5 0 0. 9.
 -11 -1 0 0 0 0 0 0 -5 5 0 0. 9.
 15 1 1 2 0 0 -1.32755 1.76115 4.12046 5 1.7768 0. -1
 -15 1 1 2 0 0 1.32755 -1.76115 -4.12046 5 1.7768 0. 1
</event>
<event>
 4 80 1 -1 -1 -1
 11 -1 0 0 0 0 0 0 5 5 0 0. 9.
 -11 -1 0 0 0 0 0 0 -4.99819 4.99819 0 0. 9.
 15 1 1 2 0 0 -0.967566 -1.51318 4.31452 4.99988 1.7768 0. 1
 -15 1 1 2 0 0 0.967566 1.51318 -4.31271 4.99831 1.7768 0. -1
</event>
<event>
 4 80 1 -1 -1 -1
 11 -1 0 0 0 0 0 0 4.22198 4.22198 0 0. 9.
 -11 -1 0 0 0 0 0 0 -5 5 0 0. 9.
 15 1 1 2 0 0 2.33041 1.91878 2.59478 4.35926 1.7768 0. 1
 -15 1 1 2 0 0 -2.33041 -1.91878 -3.3728 4.86272 1.7768 0. -1
</event>
<event>
 4 80 1 -1 -1 -1
 11 -1 0 0 0 0 0 0 5 5 0 0. 9.
 -11 -1 0 0 0 0 0 0 -5 5 0 0. 9.
 15 1 1 2 0 0 -1.90157 1.28918 -4.06993 5 1.7768 0. -1
 -15 1 1 2 0 0 1.90157 -1.28918 4.06993 5 1.7768 0. 1
</event>
<event>
 4 80 1 -1 -1 -1
 11 -1 0 0 0 0 0 0 5 5 0 0. 9.
 -11 -1 0 0 0 0 0 0 -5 5 0 0. 9.
 15 1 1 2 0 0 2.06103 -4.16319 0.512157 5 1.7768 0. 1
 -15 1 1 2 0 0 -2.06103 4.16319 -0.512157 5 1.7768 0. -1
</event>
<event>
 4 80 1 -1 -1 -1
 11 -1 0 0 0 0 0 0 5 5 0 0. 9.
 -11 -1 0 0 0 0 0 0 -4.99977 4.99977 0 0. 9.
 15 1 1 2 0 0 -1.64988 2.89948 3.27304 4.99996 1.7768 0. 1
 -15 1 1 2 0 0 1.64988 -2.89948 -3.27281 4.99981 1.7768 0. -1
</event>
<event>
 4 80 1 -1 -1 -1
 11 -1 0 0 0 0 0 0 5 5 0 0. 9.
 -11 -1 0 0 0 0 0 0 -5 5 0 0. 9.
 15 1 1 2 0 0 3.76152 -1.12715 2.53431 5 1.7768 0. 1
 -15 1 1 2 0 0 -3.76152 1.12715 -2.53431 5 1.7768 0. -1
</event>
<event>
 4 80 1 -1 -1 -1
 11 -1 0 0 0 0 0 0 4.99998 4.99998 0 0. 9.
 -11 -1 0 0 0 0 0 0 -4.46851 4.46851 0 0. 9.
 15 1 1 2 0 0 -1.36456 -2.82561 3.32648 4.90604 1.7768 0. 1
 -15 1 1 2 0 0 1.36456 2.82561 -2.79501 4.56244 1.7768 0. -1
</event>
<event>
 4 80 1 -1 -1 -1
 11 -1 0 0 0 0 0 0 5 5 0 0. 9.
 -11 -1 0 0 0 0 0 0 -5 5 0 0. 9.
 15 1 1 2 0 0 3.15443 3.31603 -0.946475 5 1.7768 0. -1
 -15 1 1 2 0 0 -3.15443 -3.31603 0.946475 5 1.7768 0. 1
</event>
<event>
 4 80 1 -1 -1 -1
 11 -1 0 0 0 0 0 0 5 5 0 0. 9.
 -11 -1 0 0 0 0 0 0 -5 5 0 0. 9.
 15 1 1 2 0 0 2.36087 -0.0891908 4.03244 5 1.7768 0. 1
 -15 1 1 2 0 0 -2.36087 0.0891908 -4.03244 5 1.7768 0. -1
</event>
<event>
 4 80 1 -1 -1 -1
 11 -1 0 0 0 0 0 0 5 5 0 0. 9.
 -11 -1 0 0 0 0 0 0 -4.99999 4.99999 0 0. 9.
 15 1 1 2 0 0 0.246037 3.19535 -3.40167 4.99999 1.7768 0. 1
 -15 1 1 2 0 0 -0.246037 -3.19535 3.40168 5 1.7768 0. -1
</event>
<event>
 4 80 1 -1 -1 -1
 11 -1 0 0 0 0 0 0 5 5 0 0. 9.
 -11 -1 0 0 0 0 0 0 -4.98487 4.98487 0 0. 9.
 15 1 1 2 0 0 -3.13892 -3.39809 -0.598121 4.99152 1.7768 0. -1
 -15 1 1 2 0 0 3.13892 3.39809 0.61325 4.99335 1.7768 0. 1
</event>
<event>
 4 80 1 -1 -1 -1
 11 -1 0 0 0 0 0 0 5 5 0 0. 9.
 -11 -1 0 0 0 0 0 0 -4.99987 4.99987 0 0. 9.
 15 1 1 2 0 0 -1.45791 -3.90348 2.11642 4.99996 1.7768 0. -1
 -15 1 1 2 0 0 1.45791 3.90348 -2.11629 4.99991 1.7768 0. 1
</event>
<event>
 4 80 1 -1 -1 -1
 11 -1 0 0 0 0 0 0 5 5 0 0. 9.
 -11 -1 0 0 0 0 0 0 -5 5 0 0. 9.
 15 1 1 2 0 0 2.86249 2.23604 -2.94084 5 1.7768 0. 1
 -15 1 1 2 0 0 -2.86249 -2.23604 2.94084 5 1.7768 0. -1
</event>
<event>
 4 80 1 -1 -1 -1
 11 -1 0 0 0 0 0 0 4.84309 4.84309 0 0. 9.
 -11 -1 0 0 0 0 0 0 -5 5 0 0. 9.
 15 1 1 2 0 0 -3.50401 -1.7202 -2.49134 4.96001 1.7768 0. 1
 -15 1 1 2 0 0 3.50401 1.7202 2.33444 4.88308 1.7768 0. -1
</event>
<event>
 4 80 1 -1 -1 -1
 11 -1 0 0 0 0 0 0 5 5 0 0. 9.
 -11 -1 0 0 0 0 0 0 -3.36839 3.36839 0 0. 9.
 15 1 1 2 0 0 0.144029 3.42706 2.22808 4.45955 1.7768 0. 1
 -15 1 1 2 0 0 -0.144029 -3.42706 -0.596468 3.90884 1.7768 0. -1
</event>
<event>
 4 80 1 -1 -1 -1
 11 -1 0 0 0 0 0 0 4.68235 4.68235 0 0. 9.
 -11 -1 0 0 0 0 0 0 -5 5 0 0. 9.
 15 1 1 2 0 0 -2.62323 2.80824 2.18476 4.76429 1.7768 0. -1
 -15 1 1 2 0 0 2.62323 -2.80824 -2.50241 4.91806 1.7768 0. 1
</event>
<event>
 4 80 1 -1 -1 -1
 11 -1 0 0 0 0 0 0 4.38316 4.38316 0 0. 9.
 -11 -1 0 0 0 0 0 0 -4.99646 4.99646 0 0. 9.
 15 1 1 2 0 0 -0.572837 -2.5112 -3.79381 4.91782 1.7768 0. -1
 -15 1 1 2 0 0 0.572837 2.5112 3.18051 4.4618 1.7768 0. 1
</event>
<event>
 4 80 1 -1 -1 -1
 11 -1 0 0 0 0 0 0 4.98313 4.98313 0 0. 9.
 -11 -1 0 0 0 0 0 0 -4.99893 4.99893 0 0. 9.
 15 1 1 2 0 0 -3.13686 -0.77457 3.35554 4.9857 1.7768 0. 1
 -15 1 1 2 0 0 3.13686 0.77457 -3.37134 4.99635 1.7768 0. -1
</event>
<event>
 4 80 1 -1 -1 -1
 11 -1 0 0 0 0 0 0 5 5 0 0. 9.
 -11 -1 0 0 0 0 0 0 -2.0395 2.0395 0 0. 9.
 15 1 1 2 0 0 1.08466 -1.10517 3.85497 4.51845 1.7768 0. -1
 -15 1 1 2 0 0 -1.08466 1.10517 -0.894473 2.52105 1.7768 0. 1
</event>
<event>
 4 80 1 -1 -1 -1
 11 -1 0 0 0 0 0 0 5 5 0 0. 9.
 -11 -1 0 0 0 0 0 0 -4.91787 4.91787 0 0. 9.
 15 1 1 2 0 0 1.4682 -1.83454 4.03 4.99197 1.7768 0. -1
 -15 1 1 2 0 0 -1.4682 1.83454 -3.94786 4.9259 1.7768 0. 1
</event>
<event>
 4 80 1 -1 -1 -1
 11 -1 0 0 0 0 0 0 5 5 0 0. 9.
 -11 -1 0 0 0 0 0 0 -4.99999 4.99999 0 0. 9.
 15 1 1 2 0 0 -3.90963 -1.86709 1.75243 5 1.7768 0. -1
 -15 1 1 2 0 0 3.90963 1.86709 -1.75242 4.99999 1.7768 0. 1
</event>
<event>
 4 80 1 -1 -1 -1
 11 -1 0 0 0 0 0 0 4.96134 4.96134 0 0. 9.
 -11 -1 0 0 0 0 0 0 -4.57065 4.57065 0 0. 9.
 15 1 1 2 0 0 -1.18993 1.09231 4.31095 4.93469 1.7768 0. 1
 -15 1 1 2 0 0 1.18993 -1.09231 -3.92025 4.5973 1.7768 0. -1
</event>
<event>
 4 80 1 -1 -1 -1
 11 -1 0 0 0 0 0 0 5 5 0 0. 9.
 -11 -1 0 0 0 0 0 0 -5 5 0 0. 9.
 15 1 1 2 0 0 -3.83203 1.83551 -1.94647 5 1.7768 0. -1
 -15 1 1 2 0 0 3.83203 -1.83551 1.94647 5 1.7768 0. 1
</event>
<event>
 4 80 1 -1 -1 -1
 11 -1 0 0 0 0 0 0 5 5 0 0. 9.
 -11 -1 0 0 0 0 0 0 -5 5 0 0. 9.
 15 1 1 2 0 0 -0.418862 1.67754 -4.34197 5 1.7768 0. 1
 -15 1 1 2 0 0 0.418862 -1.67754 4.34197 5 1.7768 0. -1
</event>
<event>
 4 80 1 -1 -1 -1
 11 -1 0 0 0 0 0 0 4.99456 4.99456 0 0. 9.
 -11 -1 0 0 0 0 0 0 -5 5 0 0. 9.
 15 1 1 2 0 0 -1.66391 -0.705955 -4.30947 4.99962 1.7768 0. 1
 -15 1 1 2 0 0 1.66391 0.705955 4.30403 4.99494 1.7768 0. -1
</event>
<event>
 4 80 1 -1 -1 -1
 11 -1 0 0 0 0 0 0 4.98979 4.98979 0 0. 9.
 -11 -1 0 0 0 0 0 0 -5 5 0 0. 9.
 15 1 1 2 0 0 1.46151 -1.50991 4.16328 4.99064 1.7768 0. -1
 -15 1 1 2 0 0 -1.46151 1.50991 -4.17348 4.99915 1.7768 0. 1
</event>
<event>
 4 80 1 -1 -1 -1
 11 -1 0 0 0 0 0 0 5 5 0 0. 9.
 -11 -1 0 0 0 0 0 0 -4.87173 4.87173 0 0. 9.
 15 1 1 2 0 0 0.90314 0.0759789 4.57888 4.99453 1.7768 0. 1
 -15 1 1 2 0 0 -0.90314 -0.0759789 -4.45061 4.8772 1.7768 0. -1
</event>
<event>
 4 80 1 -1 -1 -1
 11 -1 0 0 0 0 0 0 4.53804 4.53804 0 0. 9.
 -11 -1 0 0 0 0 0 0 -4.98956 4.98956 0 0. 9.
 15 1 1 2 0 0 -2.93051 -3.04711 -1.49696 4.82404 1.7768 0. -1
 -15 1 1 2 0 0 2.93051 3.04711 1.04544 4.70356 1.7768 0. 1
</event>
<event>
 4 80 1 -1 -1 -1
 11 -1 0 0 0 0 0 0 5 5 0 0. 9.
 -11 -1 0 0 0 0 0 0 -4.99985 4.99985 0 0. 9.
 15 1 1 2 0 0 -3.1048 3.22144 1.35066 4.99995 1.7768 0. -1
 -15 1 1 2 0 0 3.1048 -3.22144 -1.35051 4.99991 1.7768 0. 1
</event>
<event>
 4 80 1 -1 -1 -1
 11 -1 0 0 0 0 0 0 5 5 0 0. 9.
 -11 -1 0 0 0 0 0 0 -4.96429 4.96429 0 0. 9.
 15 1 1 2 0 0 4.63941 -0.355006 -0.0988424 4.98173 1.7768 0. 1
 -15 1 1 2 0 0 -4.63941 0.355006 0.134548 4.98257 1.7768 0. -1
</event>
<event>
 4 80 1 -1 -1 -1
 11 -1 0 0 0 0 0 0 5 5 0 0. 9.
 -11 -1 0 0 0 0 0 0 -4.99615 4.99615 0 0. 9.
 15 1 1 2 0 0 3.88988 -2.35747 -1.06307 4.99767 1.7768 0. -1
 -15 1 1 2 0 0 -3.88988 2.35747 1.06692 4.99849 1.7768 0. 1
</event>
<event>
 4 80 1 -1 -1 -1
 11 -1 0 0 0 0 0 0 5 5 0 0. 9.
 -11 -1 0 0 0 0 0 0 -5 5 0 0. 9.
 15 1 1 2 0 0 1.48064 2.99388 3.26905 5 1.7768 0. -1
 -15 1 1 2 0 0 -1.48064 -2.99388 -3.26905 5 1.7768 0. 1
</event>
<event>
 4 80 1 -1 -1 -1
 11 -1 0 0 0 0 0 0 4.99941 4.99941 0 0. 9.
 -11 -1 0 0 0 0 0 0 -4.92059 4.92059 0 0. 9.
 15 1 1 2 0 0 3.55833 -1.03735 -2.73638 4.93795 1.7768 0. 1
 -15 1 1 2 0 0 -3.55833 1.03735 2.8152 4.98206 1.7768 0. -1
</event>
<event>
 4 80 1 -1 -1 -1
 11 -1 0 0 0 0 0 0 4.99995 4.99995 0 0. 9.
 -11 -1 0 0 0 0 0 0 -4.99999 4.99999 0 0. 9.
 15 1 1 2 0 0 -1.0976 4.28593 1.506 4.99997 1.7768 0. 1
 -15 1 1 2 0 0 1.0976 -4.28593 -1.50604 4.99998 1.7768 0. -1
</event>
<event>
 4 80 1 -1 -1 -1
 11 -1 0 0 0 0 0 0 5 5 0 0. 9.
 -11 -1 0 0 0 0 0 0 -4.89627 4.89627 0 0. 9.
 15 1 1 2 0 0 -0.543638 -1.08945 4.50645 4.99483 1.7768 0. 1
 -15 1 1 2 0 0 0.543638 1.08945 -4.40273 4.90145 1.7768 0. -1
</event>
<event>
 4 80 1 -1 -1 -1
 11 -1 0 0 0 0 0 0 4.99993 4.99993 0 0. 9.
 -11 -1 0 0 0 0 0 0 -5 5 0 0. 9.
 15 1 1 2 0 0 -0.345118 -4.26506 -1.87941 4.99998 1.7768 0. 1
 -15 1 1 2 0 0 0.345118 4.26506 1.87933 4.99995 1.7768 0. -1
</event>
<event>
 4 80 1 -1 -1 -1
 11 -1 0 0 0 0 0 0 5 5 0 0. 9.
 -11 -1 0 0 0 0 0 0 -4.99975 4.99975 0 0. 9.
 15 1 1 2 0 0 2.01186 -1.29792 4.01371 4.99997 1.7768 0. -1
 -15 1 1 2 0 0 -2.01186 1.29792 -4.01345 4.99977 1.7768 0. 1
</event>
<event>
 4 80 1 -1 -1 -1
 11 -1 0 0 0 0 0 0 0.70249 0.70249 0 0. 9.
 -11 -1 0 0 0 0 0 0 -4.99004 4.99004 0 0. 9.
 15 1 1 2 0 0 -0.155385 0.40296 -2.75414 3.30599 1.7768 0. -1
 -15 1 1 2 0 0 0.155385 -0.40296 -1.53341 2.38655 1.7768 0. 1
</event>
<event>
 4 80 1 -1 -1 -1
 11 -1 0 0 0 0 0 0 4.99724 4.99724 0 0. 9.
 -11 -1 0 0 0 0 0 0 -0.948969 0.948969 0 0. 9.
 15 1 1 2 0 0 -0.536935 0.752704 3.19033 3.76706 1.7768 0. 1
 -15 1 1 2 0 0 0.536935 -0.752704 0.857941 2.17914 1.7768 0. -1
</event>
<event>
 4 80 1 -1 -1 -1
 11 -1 0 0 0 0 0 0 4.94853 4.94853 0 0. 9.
 -11 -1 0 0 0 0 0 0 -2.46623 2.46623 0 0. 9.
 15 1 1 2 0 0 0.438243 -2.71515 -0.0509382 3.27481 1.7768 0. -1
 -15 1 1 2 0 0 -0.438243 2.71515 2.53324 4.13994 1.7768 0. 1
</event>
<event>
 4 80 1 -1 -1 -1
 11 -1 0 0 0 0 0 0 5 5 0 0. 9.
 -11 -1 0 0 0 0 0 0 -5 5 0 0. 9.
 15 1 1 2 0 0 -1.10129 4.28517 -1.50557 5 1.7768 0. 1
 -15 1 1 2 0 0 1.10129 -4.28517 1.50557 5 1.7768 0. -1
</event>
<event>
 4 80 1 -1 -1 -1
 11 -1 0 0 0 0 0 0 5 5 0 0. 9.
 -11 -1 0 0 0 0 0 0 -2.29186 2.29186 0 0. 9.
 15 1 1 2 0 0 2.49219 -0.0491043 2.91043 4.22395 1.7768 0. 1
 -15 1 1 2 0 0 -2.49219 0.0491043 -0.202294 3.06791 1.7768 0. -1
</event>
<event>
 4 80 1 -1 -1 -1
 11 -1 0 0 0 0 0 0 5 5 0 0. 9.
 -11 -1 0 0 0 0 0 0 -4.68476 4.68476 0 0. 9.
 15 1 1 2 0 0 4.28487 -1.35588 0.417709 4.85084 1.7768 0. 1
 -15 1 1 2 0 0 -4.28487 1.35588 -0.102466 4.83391 1.7768 0. -1
</event>
<event>
 4 80 1 -1 -1 -1
 11 -1 0 0 0 0 0 0 5 5 0 0. 9.
 -11 -1 0 0 0 0 0 0 -4.97731 4.97731 0 0. 9.
 15 1 1 2 0 0 -1.46469 -3.67709 -2.45087 4.98305 1.7768 0. -1
 -15 1 1 2 0 0 1.46469 3.67709 2.47357 4.99425 1.7768 0. 1
</event>
<event>
 4 80 1 -1 -1 -1
 11 -1 0 0 0 0 0 0 5 5 0 0. 9.
 -11 -1 0 0 0 0 0 0 -5 5 0 0. 9.
 15 1 1 2 0 0 -0.829976 -0.308987 -4.58889 5 1.7768 0. 1
 -15 1 1 2 0 0 0.829976 0.308987 4.58889 5 1.7768 0. -1
</event>
<event>
 4 80 1 -1 -1 -1
 11 -1 0 0 0 0 0 0 5 5 0 0. 9.
 -11 -1 0 0 0 0 0 0 -4.99874 4.99874 0 0. 9.
 15 1 1 2 0 0 1.35786 3.93271 2.12807 4.99964 1.7768 0. -1
 -15 1 1 2 0 0 -1.35786 -3.93271 -2.12681 4.9991 1.7768 0. 1
</event>
<event>
 4 80 1 -1 -1 -1
 11 -1 0 0 0 0 0 0 5 5 0 0. 9.
 -11 -1 0 0 0 0 0 0 -4.99931 4.99931 0 0. 9.
 15 1 1 2 0 0 -0.571013 -1.29838 -4.45241 4.99935 1.7768 0. 1
 -15 1 1 2 0 0 0.571013 1.29838 4.45309 4.99996 1.7768 0. -1
</event>
<event>
 4 80 1 -1 -1 -1
 11 -1 0 0 0 0 0 0 5 5 0 0. 9.
 -11 -1 0 0 0 0 0 0 -4.99928 4.99928 0 0. 9.
 15 1 1 2 0 0 2.28898 -3.48112 2.1172 4.99979 1.7768 0. -1
 -15 1 1 2 0 0 -2.28898 3.48112 -2.11648 4.99949 1.7768 0. 1
</event>
<event>
 4 80 1 -1 -1 -1
 11 -1 0 0 0 0 0 0 4.99976 4.99976 0 0. 9.
 -11 -1 0 0 0 0 0 0 -5 5 0 0. 9.
 15 1 1 2 0 0 -2.48626 3.84045 0.954097 4.99986 1.7768 0. -1
 -15 1 1 2 0 0 2.48626 -3.84045 -0.954339 4.9999 1.7768 0. 1
</event>
<event>
 4 80 1 -1 -1 -1
 11 -1 0 0 0 0 0 0 5 5 0 0. 9.
 -11 -1 0 0 0 0 0 0 -4.99433 4.99433 0 0. 9.
 15 1 1 2 0 0 1.78268 4.29882 0.397928 4.99739 1.7768 0. 1
 -15 1 1 2 0 0 -1.78268 -4.29882 -0.392254 4.99694 1.7768 0. -1
</event>
<event>
 4 80 1 -1 -1 -1
 11 -1 0 0 0 0 0 0 5 5 0 0. 9.
 -11 -1 0 0 0 0 0 0 -5 5 0 0. 9.
 15 1 1 2 0 0 1.81974 -2.42883 -3.55409 5 1.7768 0. 1
 -15 1 1 2 0 0 -1.81974 2.42883 3.55409 5 1.7768 0. -1
</event>
<event>
 4 80 1 -1 -1 -1
 11 -1 0 0 0 0 0 0 4.91459 4.91459 0 0. 9.
 -11 -1 0 0 0 0 0 0 -4.99973 4.99973 0 0. 9.
 15 1 1 2 0 0 3.02112 -3.50264 0.0925296 4.956 1.7768 0. 1
 -15 1 1 2 0 0 -3.02112 3.50264 -0.17767 4.95832 1.7768 0. -1
</event>
<event>
 4 80 1 -1 -1 -1
 11 -1 0 0 0 0 0 0 5 5 0 0. 9.
 -11 -1 0 0 0 0 0 0 -4.98136 4.98136 0 0. 9.
 15 1 1 2 0 0 4.47216 -0.0360597 -1.31263 4.98821 1.7768 0. -1
 -15 1 1 2 0 0 -4.47216 0.0360597 1.33128 4.99315 1.7768 0. 1
</event>
<event>
 4 80 1 -1 -1 -1
 11 -1 0 0 0 0 0 0 5 5 0 0. 9.
 -11 -1 0 0 0 0 0 0 -4.0002 4.0002 0 0. 9.
 15 1 1 2 0 0 -0.95853 -1.38487 4.26575 4.91843 1.7768 0. -1
 -15 1 1 2 0 0 0.95853 1.38487 -3.26595 4.08176 1.7768 0. 1
</event>
<event>
 4 80 1 -1 -1 -1
 11 -1 0 0 0 0 0 0 5 5 0 0. 9.
 -11 -1 0 0 0 0 0 0 -4.99889 4.99889 0 0. 9.
 15 1 1 2 0 0 4.10849 1.46998 1.67274 4.99963 1.7768 0. -1
 -15 1 1 2 0 0 -4.10849 -1.46998 -1.67163 4.99926 1.7768 0. 1
</event>
<event>
 4 80 1 -1 -1 -1
 11 -1 0 0 0 0 0 0 3.72869 3.72869 0 0. 9.
 -11 -1 0 0 0 0 0 0 -4.99343 4.99343 0 0. 9.
 15 1 1 2 0 0 -0.687048 3.57263 -2.14011 4.57968 1.7768 0. 1
 -15 1 1 2 0 0 0.687048 -3.57263 0.875373 4.14243 1.7768 0. -1
</event>
<event>
 4 80 1 -1 -1 -1
 11 -1 0 0 0 0 0 0 4.99978 4.99978 0 0. 9.
 -11 -1 0 0 0 0 0 0 -3.34089 3.34089 0 0. 9.
 15 1 1 2 0 0 -0.230317 0.785161 -2.83208 3.44209 1.7768 0. 1
 -15 1 1 2 0 0 0.230317 -0.785161 4.49097 4.89858 1.7768 0. -1
</event>
<event>
 4 80 1 -1 -1 -1
 11 -1 0 0 0 0 0 0 4.99919 4.99919 0 0. 9.
 -11 -1 0 0 0 0 0 0 -4.03014 4.03014 0 0. 9.
 15 1 1 2 0 0 -2.37717 -3.21444 1.4934 4.62294 1.7768 0. 1
 -15 1 1 2 0 0 2.37717 3.21444 -0.524344 4.40639 1.7768 0. -1
</event>
<event>
 4 80 1 -1 -1 -1
 11 -1 0 0 0 0 0 0 5 5 0 0. 9.
 -11 -1 0 0 0 0 0 0 -5 5 0 0. 9.
 15 1 1 2 0 0 0.5374 1.65367 4.33807 5 1.7768 0. 1
 -15 1 1 2 0 0 -0.5374 -1.65367 -4.33807 5 1.7768 0. -1
</event>
<event>
 4 80 1 -1 -1 -1
 11 -1 0 0 0 0 0 0 4.99869 4.99869 0 0. 9.
 -11 -1 0 0 0 0 0 0 -5 5 0 0. 9.
 15 1 1 2 0 0 -1.97701 2.631 3.31672 4.99891 1.7768 0. 1
 -15 1 1 2 0 0 1.97701 -2.631 -3.31803 4.99978 1.7768 0. -1
</event>
<event>
 4 80 1 -1 -1 -1
 11 -1 0 0 0 0 0 0 2.22826 2.22826 0 0. 9.
 -11 -1 0 0 0 0 0 0 -4.99726 4.99726 0 0. 9.
 15 1 1 2 0 0 -0.791983 -2.42884 -2.68863 4.11253 1.7768 0. -1
 -15 1 1 2 0 0 0.791983 2.42884 -0.0803655 3.11299 1.7768 0. 1
</event>
<event>
 4 80 1 -1 -1 -1
 11 -1 0 0 0 0 0 0 2.89693 2.89693 0 0. 9.
 -11 -1 0 0 0 0 0 0 -5 5 0 0. 9.
 15 1 1 2 0 0 2.01869 -2.36617 0.282341 3.59323 1.7768 0. -1
 -15 1 1 2 0 0 -2.01869 2.36617 -2.38541 4.3037 1.7768 0. 1
</event>
<event>
 4 80 1 -1 -1 -1
 11 -1 0 0 0 0 0 0 5 5 0 0. 9.
 -11 -1 0 0 0 0 0 0 -4.96396 4.96396 0 0. 9.
 15 1 1 2 0 0 3.1531 2.40781 -2.41561 4.97318 1.7768 0. 1
 -15 1 1 2 0 0 -3.1531 -2.40781 2.45165 4.99078 1.7768 0. -1
</event>
<event>
 4 80 1 -1 -1 -1
 11 -1 0 0 0 0 0 0 3.17287 3.17287 0 0. 9.
 -11 -1 0 0 0 0 0 0 -4.99991 4.99991 0 0. 9.
 15 1 1 2 0 0 -0.257882 -0.890419 2.6178 3.29696 1.7768 0. -1
 -15 1 1 2 0 0 0.257882 0.890419 -4.44484 4.87582 1.7768 0. 1
</event>
<event>
 4 80 1 -1 -1 -1
 11 -1 0 0 0 0 0 0 5 5 0 0. 9.
 -11 -1 0 0 0 0 0 0 -4.9966 4.9966 0 0. 9.
 15 1 1 2 0 0 -3.97689 1.84754 1.61296 4.99885 1.7768 0. -1
 -15 1 1 2 0 0 3.97689 -1.84754 -1.60956 4.99775 1.7768 0. 1
</event>
<event>
 4 80 1 -1 -1 -1
 11 -1 0 0 0 0 0 0 4.7106 4.7106 0 0. 9.
 -11 -1 0 0 0 0 0 0 -3.41485 3.41485 0 0. 9.
 15 1 1 2 0 0 -1.76326 -3.04589 -0.0976711 3.94383 1.7768 0. 1
 -15 1 1 2 0 0 1.76326 3.04589 1.39342 4.18162 1.7768 0. -1
</event>
<event>
 4 80 1 -1 -1 -1
 11 -1 0 0 0 0 0 0 4.96413 4.96413 0 0. 9.
 -11 -1 0 0 0 0 0 0 -4.99934 4.99934 0 0. 9.
 15 1 1 2 0 0 -3.50141 -0.708266 -3.0006 4.99228 1.7768 0. 1
 -15 1 1 2 0 0 3.50141 0.708266 2.96539 4.9712 1.7768 0. -1
</event>
<event>
 4 80 1 -1 -1 -1
 11 -1 0 0 0 0 0 0 5 5 0 0. 9.
 -11 -1 0 0 0 0 0 0 -4.97589 4.97589 0 0. 9.
 15 1 1 2 0 0 0.137539 0.37286 -4.63164 4.97672 1.7768 0. -1
 -15 1 1 2 0 0 -0.137539 -0.37286 4.65575 4.99917 1.7768 0. 1
</event>
<event>
 4 80 1 -1 -1 -1
 11 -1 0 0 0 0 0 0 5 5 0 0. 9.
 -11 -1 0 0 0 0 0 0 -4.95022 4.95022 0 0. 9.
 15 1 1 2 0 0 1.82514 0.255714 -4.24093 4.95376 1.7768 0. 1
 -15 1 1 2 0 0 -1.82514 -0.255714 4.29072 4.99645 1.7768 0. -1
</event>
<event>
 4 80 1 -1 -1 -1
 11 -1 0 0 0 0 0 0 4.99498 4.99498 0 0. 9.
 -11 -1 0 0 0 0 0 0 -5 5 0 0. 9.
 15 1 1 2 0 0 -1.23602 -2.3524 -3.84382 4.99942 1.7768 0. -1
 -15 1 1 2 0 0 1.23602 2.3524 3.8388 4.99556 1.7768 0. 1
</event>
<event>
 4 80 1 -1 -1 -1
 11 -1 0 0 0 0 0 0 4.99995 4.99995 0 0. 9.
 -11 -1 0 0 0 0 0 0 -4.99998 4.99998 0 0. 9.
 15 1 1 2 0 0 -2.73434 3.69646 0.837549 4.99996 1.7768 0. -1
 -15 1 1 2 0 0 2.73434 -3.69646 -0.837585 4.99997 1.7768 0. 1
</event>
<event>
 4 80 1 -1 -1 -1
 11 -1 0 0 0 0 0 0 5 5 0 0. 9.
 -11 -1 0 0 0 0 0 0 -4.90111 4.90111 0 0. 9.
 15 1 1 2 0 0 4.02545 0.609733 2.234 4.97237 1.7768 0. 1
 -15 1 1 2 0 0 -4.02545 -0.609733 -2.13511 4.92874 1.7768 0. -1
</event>
<event>
 4 80 1 -1 -1 -1
 11 -1 0 0 0 0 0 0 5 5 0 0. 9.
 -11 -1 0 0 0 0 0 0 -4.85436 4.85436 0 0. 9.
 15 1 1 2 0 0 4.08685 -1.11247 -1.70898 4.90085 1.7768 0. -1
 -15 1 1 2 0 0 -4.08685 1.11247 1.85462 4.95351 1.7768 0. 1
</event>
<event>
 4 80 1 -1 -1 -1
 11 -1 0 0 0 0 0 0 5 5 0 0. 9.
 -11 -1 0 0 0 0 0 0 -4.99877 4.99877 0 0. 9.
 15 1 1 2 0 0 -2.47153 -3.547 1.77443 4.9996 1.7768 0. 1
 -15 1 1 2 0 0 2.47153 3.547 -1.7732 4.99917 1.7768 0. -1
</event>
<event>
 4 80 1 -1 -1 -1
 11 -1 0 0 0 0 0 0 4.98599 4.98599 0 0. 9.
 -11 -1 0 0 0 0 0 0 -5 5 0 0. 9.
 15 1 1 2 0 0 -1.85309 -2.79446 -3.25189 4.99755 1.7768 0. 1
 -15 1 1 2 0 0 1.85309 2.79446 3.23788 4.98844 1.7768 0. -1
</event>
<event>
 4 80 1 -1 -1 -1
 11 -1 0 0 0 0 0 0 5 5 0 0. 9.
 -11 -1 0 0 0 0 0 0 -5 5 0 0. 9.
 15 1 1 2 0 0 2.97456 -3.34194 1.35119 5 1.7768 0. 1
 -15 1 1 2 0 0 -2.97456 3.34194 -1.35119 5 1.7768 0. -1
</event>
<event>
 4 80 1 -1 -1 -1
 11 -1 0 0 0 0 0 0 5 5 0 0. 9.
 -11 -1 0 0 0 0 0 0 -4.99823 4.99823 0 0. 9.
 15 1 1 2 0 0 3.67684 -0.828051 2.76288 4.9996 1.7768 0. 1
 -15 1 1 2 0 0 -3.67684 0.828051 -2.76112 4.99863 1.7768 0. -1
</event>
<event>
 4 80 1 -1 -1 -1
 11 -1 0 0 0 0 0 0 5 5 0 0. 9.
 -11 -1 0 0 0 0 0 0 -5 5 0 0. 9.
 15 1 1 2 0 0 -0.174545 2.23469 4.10097 5 1.7768 0. -1
 -15 1 1 2 0 0 0.174545 -2.23469 -4.10097 5 1.7768 0. 1
</event>
<event>
 4 80 1 -1 -1 -1
 11 -1 0 0 0 0 0 0 5 5 0 0. 9.
 -11 -1 0 0 0 0 0 0 -5 5 0 0. 9.
 15 1 1 2 0 0 -0.458231 4.06872 2.2534 5 1.7768 0. -1
 -15 1 1 2 0 0 0.458231 -4.06872 -2.2534 5 1.7768 0. 1
</event>
<event>
 4 80 1 -1 -1 -1
 11 -1 0 0 0 0 0 0 5 5 0 0. 9.
 -11 -1 0 0 0 0 0 0 -5 5 0 0. 9.
 15 1 1 2 0 0 2.21513 4.06892 0.615887 5 1.7768 0. -1
 -15 1 1 2 0 0 -2.21513 -4.06892 -0.615887 5 1.7768 0. 1
</event>
<event>
 4 80 1 -1 -1 -1
 11 -1 0 0 0 0 0 0 5 5 0 0. 9.
 -11 -1 0 0 0 0 0 0 -4.99975 4.99975 0 0. 9.
 15 1 1 2 0 0 -3.14033 -1.02388 -3.30609 4.99979 1.7768 0. 1
 -15 1 1 2 0 0 3.14033 1.02388 3.30633 4.99996 1.7768 0. -1
</event>
<event>
 4 80 1 -1 -1 -1
 11 -1 0 0 0 0 0 0 4.99996 4.99996 0 0. 9.
 -11 -1 0 0 0 0 0 0 -4.99999 4.99999 0 0. 9.
 15 1 1 2 0 0 -4.04543 0.128545 2.33664 4.99997 1.7768 0. -1
 -15 1 1 2 0 0 4.04543 -0.128545 -2.33668 4.99998 1.7768 0. 1
</event>
<event>
 4 80 1 -1 -1 -1
 11 -1 0 0 0 0 0 0 5 5 0 0. 9.
 -11 -1 0 0 0 0 0 0 -5 5 0 0. 9.
 15 1 1 2 0 0 1.32656 3.73883 2.47056 5 1.7768 0. 1
 -15 1 1 2 0 0 -1.32656 -3.73883 -2.47056 5 1.7768 0. -1
</event>
<event>
 4 80 1 -1 -1 -1
 11 -1 0 0 0 0 0 0 4.99469 4.99469 0 0. 9.
 -11 -1 0 0 0 0 0 0 -5 5 0 0. 9.
 15 1 1 2 0 0 2.31122 2.77562 2.95874 4.99577 1.7768 0. -1
 -15 1 1 2 0 0 -2.31122 -2.77562 -2.96406 4.99892 1.7768 0. 1
</event>
<event>
 4 80 1 -1 -1 -1
 11 -1 0 0 0 0 0 0 5 5 0 0. 9.
 -11 -1 0 0 0 0 0 0 -5 5 0 0. 9.
 15 1 1 2 0 0 -3.38069 -0.964449 -3.07945 5 1.7768 0. -1
 -15 1 1 2 0 0 3.38069 0.964449 3.07945 5 1.7768 0. 1
</event>
<event>
 4 80 1 -1 -1 -1
 11 -1 0 0 0 0 0 0 5 5 0 0. 9.
 -11 -1 0 0 0 0 0 0 -5 5 0 0. 9.
 15 1 1 2 0 0 3.7733 -1.80201 -2.0874 5 1.7768 0. 1
 -15 1 1 2 0 0 -3.7733 1.80201 2.0874 5 1.7768 0. -1
</event>
<event>
 4 80 1 -1 -1 -1
 11 -1 0 0 0 0 0 0 2.12412 2.12412 0 0. 9.
 -11 -1 0 0 0 0 0 0 -5 5 0 0. 9.
 15 1 1 2 0 0 0.187914 -1.05309 -4.18543 4.67117 1.7768 0. -1
 -15 1 1 2 0 0 -0.187914 1.05309 1.30955 2.45295 1.7768 0. 1
</event>
<event>
 4 80 1 -1 -1 -1
 11 -1 0 0 0 0 0 0 4.8973 4.8973 0 0. 9.
 -11 -1 0 0 0 0 0 0 -5 5 0 0. 9.
 15 1 1 2 0 0 3.49987 0.118123 2.95975 4.9174 1.7768 0. 1
 -15 1 1 2 0 0 -3.49987 -0.118123 -3.06245 4.97989 1.7768 0. -1
</event>
<event>
 4 80 1 -1 -1 -1
 11 -1 0 0 0 0 0 0 4.99969 4.99969 0 0. 9.
 -11 -1 0 0 0 0 0 0 -4.99993 4.99993 0 0. 9.
 15 1 1 2 0 0 -2.67279 -3.82717 -0.222217 4.99982 1.7768 0. 1
 -15 1 1 2 0 0 2.67279 3.82717 0.22198 4.99981 1.7768 0. -1
</event>
<event>
 4 80 1 -1 -1 -1
 11 -1 0 0 0 0 0 0 4.99996 4.99996 0 0. 9.
 -11 -1 0 0 0 0 0 0 -5 5 0 0. 9.
 15 1 1 2 0 0 -0.402237 -4.52101 -1.11392 4.99998 1.7768 0. 1
 -15 1 1 2 0 0 0.402237 4.52101 1.11388 4.99998 1.7768 0. -1
</event>
<event>
 4 80 1 -1 -1 -1
 11 -1 0 0 0 0 0 0 5 5 0 0. 9.
 -11 -1 0 0 0 0 0 0 -5 5 0 0. 9.
 15 1 1 2 0 0 2.32142 0.284005 -4.04631 5 1.7768 0. 1
 -15 1 1 2 0 0 -2.32142 -0.284005 4.04631 5 1.7768 0. -1
</event>
<event>
 4 80 1 -1 -1 -1
 11 -1 0 0 0 0 0 0 1.49151 1.49151 0 0. 9.
 -11 -1 0 0 0 0 0 0 -4.99999 4.99999 0 0. 9.
 15 1 1 2 0 0 -0.372 -1.96514 -1.10359 2.89409 1.7768 0. 1
 -15 1 1 2 0 0 0.372 1.96514 -2.40489 3.59741 1.7768 0. -1
</event>
<event>
 4 80 1 -1 -1 -1
 11 -1 0 0 0 0 0 0 4.99999 4.99999 0 0. 9.
 -11 -1 0 0 0 0 0 0 -5 5 0 0. 9.
 15 1 1 2 0 0 2.27413 -3.74169 -1.63413 5 1.7768 0. 1
 -15 1 1 2 0 0 -2.27413 3.74169 1.63412 5 1.7768 0. -1
</event>
<event>
 4 80 1 -1 -1 -1
 11 -1 0 0 0 0 0 0 4.99311 4.99311 0 0. 9.
 -11 -1 0 0 0 0 0 0 -4.88639 4.88639 0 0. 9.
 15 1 1 2 0 0 0.446686 -3.26244 3.27807 4.97458 1.7768 0. 1
 -15 1 1 2 0 0 -0.446686 3.26244 -3.17135 4.90492 1.7768 0. -1
</event>
<event>
 4 80 1 -1 -1 -1
 11 -1 0 0 0 0 0 0 4.99999 4.99999 0 0. 9.
 -11 -1 0 0 0 0 0 0 -5 5 0 0. 9.
 15 1 1 2 0 0 -0.256622 -1.38844 -4.45518 5 1.7768 0. -1
 -15 1 1 2 0 0 0.256622 1.38844 4.45517 4.99999 1.7768 0. 1
</event>
<event>
 4 80 1 -1 -1 -1
 11 -1 0 0 0 0 0 0 4.99993 4.99993 0 0. 9.
 -11 -1 0 0 0 0 0 0 -5 5 0 0. 9.
 15 1 1 2 0 0 0.316183 2.74778 3.76714 4.99994 1.7768 0. -1
 -15 1 1 2 0 0 -0.316183 -2.74778 -3.76721 4.99999 1.7768 0. 1
</event>
<event>
 4 80 1 -1 -1 -1
 11 -1 0 0 0 0 0 0 5 5 0 0. 9.
 -11 -1 0 0 0 0 0 0 -4.06454 4.06454 0 0. 9.
 15 1 1 2 0 0 3.24339 0.391018 -2.09399 4.2679 1.7768 0. -1
 -15 1 1 2 0 0 -3.24339 -0.391018 3.02945 4.79664 1.7768 0. 1
</event>
<event>
 4 80 1 -1 -1 -1
 11 -1 0 0 0 0 0 0 4.99179 4.99179 0 0. 9.
 -11 -1 0 0 0 0 0 0 -5 5 0 0. 9.
 15 1 1 2 0 0 -4.24984 0.079424 -1.9364 4.99748 1.7768 0. -1
 -15 1 1 2 0 0 4.24984 -0.079424 1.92819 4.99431 1.7768 0. 1
</event>
<event>
 4 80 1 -1 -1 -1
 11 -1 0 0 0 0 0 0 5 5 0 0. 9.
 -11 -1 0 0 0 0 0 0 -5 5 0 0. 9.
 15 1 1 2 0 0 -0.195255 -2.72787 -3.78984 5 1.7768 0. -1
 -15 1 1 2 0 0 0.195255 2.72787 3.78984 5 1.7768 0. 1
</event>
<event>
 4 80 1 -1 -1 -1
 11 -1 0 0 0 0 0 0 4.99958 4.99958 0 0. 9.
 -11 -1 0 0 0 0 0 0 -4.99999 4.99999 0 0. 9.
 15 1 1 2 0 0 -4.04852 0.113847 -2.33186 4.99988 1.7768 0. 1
 -15 1 1 2 0 0 4.04852 -0.113847 2.33145 4.99969 1.7768 0. -1
</event>
<event>
 4 80 1 -1 -1 -1
 11 -1 0 0 0 0 0 0 4.99974 4.99974 0 0. 9.
 -11 -1 0 0 0 0 0 0 -5 5 0 0. 9.
 15 1 1 2 0 0 -1.19057 -3.47056 -2.89473 4.99995 1.7768 0. -1
 -15 1 1 2 0 0 1.19057 3.47056 2.89447 4.99979 1.7768 0. 1
</event>
<event>
 4 80 1 -1 -1 -1
 11 -1 0 0 0 0 0 0 5 5 0 0. 9.
 -11 -1 0 0 0 0 0 0 -5 5 0 0. 9.
 15 1 1 2 0 0 -2.6088 -2.91065 2.56213 5 1.7768 0. -1
 -15 1 1 2 0 0 2.6088 2.91065 -2.56213 5 1.7768 0. 1
</event>
<event>
 4 80 1 -1 -1 -1
 11 -1 0 0 0 0 0 0 5 5 0 0. 9.
 -11 -1 0 0 0 0 0 0 -5 5 0 0. 9.
 15 1 1 2 0 0 4.07863 2.00049 1.09776 5 1.7768 0. 1
 -15 1 1 2 0 0 -4.07863 -2.00049 -1.09776 5 1.7768 0. -1
</event>
<event>
 4 80 1 -1 -1 -1
 11 -1 0 0 0 0 0 0 5 5 0 0. 9.
 -11 -1 0 0 0 0 0 0 -5 5 0 0. 9.
 15 1 1 2 0 0 -1.43693 1.00109 -4.33305 5 1.7768 0. 1
 -15 1 1 2 0 0 1.43693 -1.00109 4.33305 5 1.7768 0. -1
</event>
<event>
 4 80 1 -1 -1 -1
 11 -1 0 0 0 0 0 0 4.99991 4.99991 0 0. 9.
 -11 -1 0 0 0 0 0 0 -4.99323 4.99323 0 0. 9.
 15 1 1 2 0 0 2.92317 2.55974 -2.58718 4.99484 1.7768 0. -1
 -15 1 1 2 0 0 -2.92317 -2.55974 2.59386 4.9983 1.7768 0. 1
</event>
<event>
 4 80 1 -1 -1 -1
 11 -1 0 0 0 0 0 0 4.71537 4.71537 0 0. 9.
 -11 -1 0 0 0 0 0 0 -4.99995 4.99995 0 0. 9.
 15 1 1 2 0 0 -1.17531 -2.45206 -3.75284 4.96342 1.7768 0. -1
 -15 1 1 2 0 0 1.17531 2.45206 3.46827 4.7519 1.7768 0. 1
</event>
<event>
 4 80 1 -1 -1 -1
 11 -1 0 0 0 0 0 0 3.69485 3.69485 0 0. 9.
 -11 -1 0 0 0 0 0 0 -4.99993 4.99993 0 0. 9.
 15 1 1 2 0 0 1.10733 -2.7291 -3.25929 4.73866 1.7768 0. 1
 -15 1 1 2 0 0 -1.10733 2.7291 1.95421 3.95612 1.7768 0. -1
</event>
<event>
 4 80 1 -1 -1 -1
 11 -1 0 0 0 0 0 0 4.9982 4.9982 0 0. 9.
 -11 -1 0 0 0 0 0 0 -4.71055 4.71055 0 0. 9.
 15 1 1 2 0 0 -1.86211 3.49785 -2.0214 4.79022 1.7768 0. 1
 -15 1 1 2 0 0 1.86211 -3.49785 2.30906 4.91853 1.7768 0. -1
</event>
<event>
 4 80 1 -1 -1 -1
 11 -1 0 0 0 0 0 0 0.718745 0.718745 0 0. 9.
 -11 -1 0 0 0 0 0 0 -5 5 0 0. 9.
 15 1 1 2 0 0 -0.193917 -0.144312 -3.06745 3.55322 1.7768 0. 1
 -15 1 1 2 0 0 0.193917 0.144312 -1.21381 2.16552 1.7768 0. -1
</event>
<event>
 4 80 1 -1 -1 -1
 11 -1 0 0 0 0 0 0 5 5 0 0. 9.
 -11 -1 0 0 0 0 0 0 -5 5 0 0. 9.
 15 1 1 2 0 0 -3.28311 -1.8664 -2.75318 5 1.7768 0. -1
 -15 1 1 2 0 0 3.28311 1.8664 2.75318 5 1.7768 0. 1
</event>
<event>
 4 80 1 -1 -1 -1
 11 -1 0 0 0 0 0 0 5 5 0 0. 9.
 -11 -1 0 0 0 0 0 0 -5 5 0 0. 9.
 15 1 1 2 0 0 1.57368 1.43254 4.16097 5 1.7768 0. -1
 -15 1 1 2 0 0 -1.57368 -1.43254 -4.16096 5 1.7768 0. 1
</event>
<event>
 4 80 1 -1 -1 -1
 11 -1 0 0 0 0 0 0 4.99921 4.99921 0 0. 9.
 -11 -1 0 0 0 0 0 0 -1.58722 1.58722 0 0. 9.
 15 1 1 2 0 0 0.54632 1.33621 3.6246 4.28712 1.7768 0. -1
 -15 1 1 2 0 0 -0.54632 -1.33621 -0.212606 2.29932 1.7768 0. 1
</event>
<event>
 4 80 1 -1 -1 -1
 11 -1 0 0 0 0 0 0 5 5 0 0. 9.
 -11 -1 0 0 0 0 0 0 -5 5 0 0. 9.
 15 1 1 2 0 0 -1.65397 1.38159 4.14703 5 1.7768 0. 1
 -15 1 1 2 0 0 1.65397 -1.38159 -4.14703 5 1.7768 0. -1
</event>
<event>
 4 80 1 -1 -1 -1
 11 -1 0 0 0 0 0 0 5 5 0 0. 9.
 -11 -1 0 0 0 0 0 0 -4.97016 4.97016 0 0. 9.
 15 1 1 2 0 0 -4.40132 0.782374 1.32234 4.98899 1.7768 0. 1
 -15 1 1 2 0 0 4.40132 -0.782374 -1.2925 4.98117 1.7768 0. -1
</event>
<event>
 4 80 1 -1 -1 -1
 11 -1 0 0 0 0 0 0 5 5 0 0. 9.
 -11 -1 0 0 0 0 0 0 -4.91622 4.91622 0 0. 9.
 15 1 1 2 0 0 1.1742 -0.529281 -4.404 4.92055 1.7768 0. -1
 -15 1 1 2 0 0 -1.1742 0.529281 4.48777 4.99567 1.7768 0. 1
</event>
<event>
 4 80 1 -1 -1 -1
 11 -1 0 0 0 0 0 0 5 5 0 0. 9.
 -11 -1 0 0 0 0 0 0 -5 5 0 0. 9.
 15 1 1 2 0 0 0.499784 0.875252 4.5636 5 1.7768 0. 1
 -15 1 1 2 0 0 -0.499784 -0.875252 -4.5636 5 1.7768 0. -1
</event>
<event>
 4 80 1 -1 -1 -1
 11 -1 0 0 0 0 0 0 5 5 0 0. 9.
 -11 -1 0 0 0 0 0 0 -4.98643 4.98643 0 0. 9.
 15 1 1 2 0 0 2.06104 3.57535 2.18472 4.99617 1.7768 0. 1
 -15 1 1 2 0 0 -2.06104 -3.57535 -2.17114 4.99025 1.7768 0. -1
</event>
<event>
 4 80 1 -1 -1 -1
 11 -1 0 0 0 0 0 0 5 5 0 0. 9.
 -11 -1 0 0 0 0 0 0 -4.99996 4.99996 0 0. 9.
 15 1 1 2 0 0 -1.19527 0.337889 -4.50545 4.99997 1.7768 0. 1
 -15 1 1 2 0 0 1.19527 -0.337889 4.50549 5 1.7768 0. -1
</event>
<event>
 4 80 1 -1 -1 -1
 11 -1 0 0 0 0 0 0 5 5 0 0. 9.
 -11 -1 0 0 0 0 0 0 -5 5 0 0. 9.
 15 1 1 2 0 0 -2.74824 -1.90579 -3.26457 5 1.7768 0. -1
 -15 1 1 2 0 0 2.74824 1.90579 3.26457 5 1.7768 0. 1
</event>
<event>
 4 80 1 -1 -1 -1
 11 -1 0 0 0 0 0 0 2.49026 2.49026 0 0. 9.
 -11 -1 0 0 0 0 0 0 -4.9991 4.9991 0 0. 9.
 15 1 1 2 0 0 -1.43764 1.30098 -3.75065 4.58088 1.7768 0. -1
 -15 1 1 2 0 0 1.43764 -1.30098 1.24182 2.90847 1.7768 0. 1
</event>
<event>
 4 80 1 -1 -1 -1
 11 -1 0 0 0 0 0 0 4.99997 4.99997 0 0. 9.
 -11 -1 0 0 0 0 0 0 -5 5 0 0. 9.
 15 1 1 2 0 0 0.454443 -4.0587 -2.27214 4.99999 1.7768 0. 1
 -15 1 1 2 0 0 -0.454443 4.0587 2.27211 4.99998 1.7768 0. -1
</event>
<event>
 4 80 1 -1 -1 -1
 11 -1 0 0 0 0 0 0 4.99213 4.99213 0 0. 9.
 -11 -1 0 0 0 0 0 0 -4.99895 4.99895 0 0. 9.
 15 1 1 2 0 0 -1.79618 2.15365 -3.73613 4.99808 1.7768 0. -1
 -15 1 1 2 0 0 1.79618 -2.15365 3.72932 4.99299 1.7768 0. 1
</event>
<event>
 4 80 1 -1 -1 -1
 11 -1 0 0 0 0 0 0 5 5 0 0. 9.
 -11 -1 0 0 0 0 0 0 -5 5 0 0. 9.
 15 1 1 2 0 0 0.599541 1.15424 4.48894 5 1.7768 0. 1
 -15 1 1 2 0 0 -0.599541 -1.15424 -4.48894 5 1.7768 0. -1
</event>
<event>
 4 80 1 -1 -1 -1
 11 -1 0 0 0 0 0 0 5 5 0 0. 9.
 -11 -1 0 0 0 0 0 0 -4.99757 4.99757 0 0. 9.
 15 1 1 2 0 0 -0.880622 -4.26069 -1.70205 4.99837 1.7768 0. 1
 -15 1 1 2 0 0 0.880622 4.26069 1.70448 4.9992 1.7768 0. -1
</event>
<event>
 4 80 1 -1 -1 -1
 11 -1 0 0 0 0 0 0 4.99998 4.99998 0 0. 9.
 -11 -1 0 0 0 0 0 0 -4.9938 4.9938 0 0. 9.
 15 1 1 2 0 0 0.181722 -0.166812 4.66682 4.99978 1.7768 0. 1
 -15 1 1 2 0 0 -0.181722 0.166812 -4.66064 4.99401 1.7768 0. -1
</event>
<event>
 4 80 1 -1 -1 -1
 11 -1 0 0 0 0 0 0 5 5 0 0. 9.
 -11 -1 0 0 0 0 0 0 -5 5 0 0. 9.
 15 1 1 2 0 0 0.961483 -0.46908 4.54948 5 1.7768 0. -1
 -15 1 1 2 0 0 -0.961483 0.46908 -4.54948 5 1.7768 0. 1
</event>
<event>
 4 80 1 -1 -1 -1
 11 -1 0 0 0 0 0 0 5 5 0 0. 9.
 -11 -1 0 0 0 0 0 0 -3.43197 3.43197 0 0. 9.
 15 1 1 2 0 0 -1.66603 -1.98247 3.53313 4.72722 1.7768 0. -1
 -15 1 1 2 0 0 1.66603 1.98247 -1.9651 3.70475 1.7768 0. 1
</event>
<event>
 4 80 1 -1 -1 -1
 11 -1 0 0 0 0 0 0 5 5 0 0. 9.
 -11 -1 0 0 0 0 0 0 -3.73892 3.73892 0 0. 9.
 15 1 1 2 0 0 3.75543 -0.973705 1.33472 4.47108 1.7768 0. 1
 -15 1 1 2 0 0 -3.75543 0.973705 -0.0736408 4.26785 1.7768 0. -1
</event>
<event>
 4 80 1 -1 -1 -1
 11 -1 0 0 0 0 0 0 4.99997 4.99997 0 0. 9.
 -11 -1 0 0 0 0 0 0 -5 5 0 0. 9.
 15 1 1 2 0 0 -4.64657 0.260905 0.428279 4.99999 1.7768 0. 1
 -15 1 1 2 0 0 4.64657 -0.260905 -0.428305 4.99999 1.7768 0. -1
</event>
<event>
 4 80 1 -1 -1 -1
 11 -1 0 0 0 0 0 0 4.99993 4.99993 0 0. 9.
 -11 -1 0 0 0 0 0 0 -5 5 0 0. 9.
 15 1 1 2 0 0 -1.93822 0.670018 4.19953 4.99994 1.7768 0. -1
 -15 1 1 2 0 0 1.93822 -0.670018 -4.19959 4.99999 1.7768 0. 1
</event>
<event>
 4 80 1 -1 -1 -1
 11 -1 0 0 0 0 0 0 5 5 0 0. 9.
 -11 -1 0 0 0 0 0 0 -4.98659 4.98659 0 0. 9.
 15 1 1 2 0 0 -2.13003 3.11533 2.75133 4.99698 1.7768 0. 1
 -15 1 1 2 0 0 2.13003 -3.11533 -2.73791 4.98961 1.7768 0. -1
</event>
<event>
 4 80 1 -1 -1 -1
 11 -1 0 0 0 0 0 0 5 5 0 0. 9.
 -11 -1 0 0 0 0 0 0 -5 5 0 0. 9.
 15 1 1 2 0 0 0.55307 1.68242 4.32502 5 1.7768 0. 1
 -15 1 1 2 0 0 -0.55307 -1.68242 -4.32502 5 1.7768 0. -1
</event>
<event>
 4 80 1 -1 -1 -1
 11 -1 0 0 0 0 0 0 4.60101 4.60101 0 0. 9.
 -11 -1 0 0 0 0 0 0 -4.99973 4.99973 0 0. 9.
 15 1 1 2 0 0 0.706809 -2.943 3.07229 4.6645 1.7768 0. -1
 -15 1 1 2 0 0 -0.706809 2.943 -3.47101 4.93625 1.7768 0. 1
</event>
<event>
 4 80 1 -1 -1 -1
 11 -1 0 0 0 0 0 0 5 5 0 0. 9.
 -11 -1 0 0 0 0 0 0 -4.99954 4.99954 0 0. 9.
 15 1 1 2 0 0 -2.66149 1.62819 -3.47906 4.99961 1.7768 0. 1
 -15 1 1 2 0 0 2.66149 -1.62819 3.47952 4.99993 1.7768 0. -1
</event>
<event>
 4 80 1 -1 -1 -1
 11 -1 0 0 0 0 0 0 5 5 0 0. 9.
 -11 -1 0 0 0 0 0 0 -3.87154 3.87154 0 0. 9.
 15 1 1 2 0 0 0.694395 3.079 3.08218 4.75605 1.7768 0. 1
 -15 1 1 2 0 0 -0.694395 -3.079 -1.95372 4.11548 1.7768 0. -1
</event>
<event>
 4 80 1 -1 -1 -1
 11 -1 0 0 0 0 0 0 4.98301 4.98301 0 0. 9.
 -11 -1 0 0 0 0 0 0 -5 5 0 0. 9.
 15 1 1 2 0 0 3.8939 -1.67175 1.94089 4.98819 1.7768 0. 1
 -15 1 1 2 0 0 -3.8939 1.67175 -1.95788 4.99482 1.7768 0. -1
</event>
<event>
 4 80 1 -1 -1 -1
 11 -1 0 0 0 0 0 0 4.98134 4.98134 0 0. 9.
 -11 -1 0 0 0 0 0 0 -4.98467 4.98467 0 0. 9.
 15 1 1 2 0 0 3.29058 -1.09809 3.10298 4.98196 1.7768 0. 1
 -15 1 1 2 0 0 -3.29058 1.09809 -3.10631 4.98404 1.7768 0. -1
</event>
<event>
 4 80 1 -1 -1 -1
 11 -1 0 0 0 0 0 0 4.97921 4.97921 0 0. 9.
 -11 -1 0 0 0 0 0 0 -4.99469 4.99469 0 0. 9.
 15 1 1 2 0 0 4.13992 -2.13575 -0.114913 4.98712 1.7768 0. -1
 -15 1 1 2 0 0 -4.13992 2.13575 0.0994312 4.98678 1.7768 0. 1
</event>
<event>
 4 80 1 -1 -1 -1
 11 -1 0 0 0 0 0 0 2.10792 2.10792 0 0. 9.
 -11 -1 0 0 0 0 0 0 -4.99945 4.99945 0 0. 9.
 15 1 1 2 0 0 -0.69242 -0.290515 -4.3039 4.71648 1.7768 0. -1
 -15 1 1 2 0 0 0.69242 0.290515 1.41238 2.39089 1.7768 0. 1
</event>
<event>
 4 80 1 -1 -1 -1
 11 -1 0 0 0 0 0 0 1.84952 1.84952 0 0. 9.
 -11 -1 0 0 0 0 0 0 -5 5 0 0. 9.
 15 1 1 2 0 0 -0.807863 -0.165448 1.0442 2.21993 1.7768 0. 1
 -15 1 1 2 0 0 0.807863 0.165448 -4.19468 4.62959 1.7768 0. -1
</event>
<event>
 4 80 1 -1 -1 -1
 11 -1 0 0 0 0 0 0 4.99374 4.99374 0 0. 9.
 -11 -1 0 0 0 0 0 0 -4.99999 4.99999 0 0. 9.
 15 1 1 2 0 0 -2.5786 1.72938 3.48557 4.99468 1.7768 0. -1
 -15 1 1 2 0 0 2.5786 -1.72938 -3.49182 4.99905 1.7768 0. 1
</event>
<event>
 4 80 1 -1 -1 -1
 11 -1 0 0 0 0 0 0 5 5 0 0. 9.
 -11 -1 0 0 0 0 0 0 -4.9971 4.9971 0 0. 9.
 15 1 1 2 0 0 2.4762 -1.42852 3.69679 4.99962 1.7768 0. -1
 -15 1 1 2 0 0 -2.4762 1.42852 -3.69389 4.99748 1.7768 0. 1
</event>
<event>
 4 80 1 -1 -1 -1
 11 -1 0 0 0 0 0 0 4.97948 4.97948 0 0. 9.
 -11 -1 0 0 0 0 0 0 -5 5 0 0. 9.
 15 1 1 2 0 0 -3.68754 -2.29307 1.68785 4.98625 1.7768 0. 1
 -15 1 1 2 0 0 3.68754 2.29307 -1.70837 4.99323 1.7768 0. -1
</event>
<event>
 4 80 1 -1 -1 -1
 11 -1 0 0 0 0 0 0 5 5 0 0. 9.
 -11 -1 0 0 0 0 0 0 -5 5 0 0. 9.
 15 1 1 2 0 0 -4.12742 0.753835 -2.05875 5 1.7768 0. 1
 -15 1 1 2 0 0 4.12742 -0.753835 2.05875 5 1.7768 0. -1
</event>
<event>
 4 80 1 -1 -1 -1
 11 -1 0 0 0 0 0 0 5 5 0 0. 9.
 -11 -1 0 0 0 0 0 0 -1.05094 1.05094 0 0. 9.
 15 1 1 2 0 0 -0.708425 1.1859 2.54795 3.3997 1.7768 0. 1
 -15 1 1 2 0 0 0.708425 -1.1859 1.40111 2.65124 1.7768 0. -1
</event>
<event>
 4 80 1 -1 -1 -1
 11 -1 0 0 0 0 0 0 4.99707 4.99707 0 0. 9.
 -11 -1 0 0 0 0 0 0 -5 5 0 0. 9.
 15 1 1 2 0 0 -2.12474 -1.28137 -3.96015 4.9997 1.7768 0. 1
 -15 1 1 2 0 0 2.12474 1.28137 3.95722 4.99737 1.7768 0. -1
</event>
<event>
 4 80 1 -1 -1 -1
 11 -1 0 0 0 0 0 0 4.99998 4.99998 0 0. 9.
 -11 -1 0 0 0 0 0 0 -4.83334 4.83334 0 0. 9.
 15 1 1 2 0 0 -2.02742 2.83797 -2.89105 4.86625 1.7768 0. 1
 -15 1 1 2 0 0 2.02742 -2.83797 3.0577 4.96707 1.7768 0. -1
</event>
<event>
 4 80 1 -1 -1 -1
 11 -1 0 0 0 0 0 0 4.99862 4.99862 0 0. 9.
 -11 -1 0 0 0 0 0 0 -4.99892 4.99892 0 0. 9.
 15 1 1 2 0 0 0.131446 4.46365 -1.37441 4.99881 1.7768 0. -1
 -15 1 1 2 0 0 -0.131446 -4.46365 1.37411 4.99873 1.7768 0. 1
</event>
<event>
 4 80 1 -1 -1 -1
 11 -1 0 0 0 0 0 0 4.99996 4.99996 0 0. 9.
 -11 -1 0 0 0 0 0 0 -5 5 0 0. 9.
 15 1 1 2 0 0 -2.80547 0.0460112 3.73754 4.99997 1.7768 0. 1
 -15 1 1 2 0 0 2.80547 -0.0460112 -3.73757 5 1.7768 0. -1
</event>
<event>
 4 80 1 -1 -1 -1
 11 -1 0 0 0 0 0 0 5 5 0 0. 9.
 -11 -1 0 0 0 0 0 0 -4.9997 4.9997 0 0. 9.
 15 1 1 2 0 0 3.35689 -1.73061 2.7528 4.99993 1.7768 0. -1
 -15 1 1 2 0 0 -3.35689 1.73061 -2.7525 4.99977 1.7768 0. 1
</event>
<event>
 4 80 1 -1 -1 -1
 11 -1 0 0 0 0 0 0 4.9901 4.9901 0 0. 9.
 -11 -1 0 0 0 0 0 0 -4.99991 4.99991 0 0. 9.
 15 1 1 2 0 0 -0.24284 2.54026 -3.91393 4.99885 1.7768 0. 1
 -15 1 1 2 0 0 0.24284 -2.54026 3.90411 4.99116 1.7768 0. -1
</event>
<event>
 4 80 1 -1 -1 -1
 11 -1 0 0 0 0 0 0 5 5 0 0. 9.
 -11 -1 0 0 0 0 0 0 -4.99728 4.99728 0 0. 9.
 15 1 1 2 0 0 2.03902 2.26238 3.54434 4.9996 1.7768 0. -1
 -15 1 1 2 0 0 -2.03902 -2.26238 -3.54163 4.99768 1.7768 0. 1
</event>
<event>
 4 80 1 -1 -1 -1
 11 -1 0 0 0 0 0 0 4.99298 4.99298 0 0. 9.
 -11 -1 0 0 0 0 0 0 -5 5 0 0. 9.
 15 1 1 2 0 0 3.50192 -3.06834 -0.36265 4.99674 1.7768 0. -1
 -15 1 1 2 0 0 -3.50192 3.06834 0.355632 4.99624 1.7768 0. 1
</event>
<event>
 4 80 1 -1 -1 -1
 11 -1 0 0 0 0 0 0 5 5 0 0. 9.
 -11 -1 0 0 0 0 0 0 -5 5 0 0. 9.
 15 1 1 2 0 0 -2.89578 1.31265 -3.42544 5 1.7768 0. -1
 -15 1 1 2 0 0 2.89578 -1.31265 3.42544 5 1.7768 0. 1
</event>
<event>
 4 80 1 -1 -1 -1
 11 -1 0 0 0 0 0 0 4.99125 4.99125 0 0. 9.
 -11 -1 0 0 0 0 0 0 -5 5 0 0. 9.
 15 1 1 2 0 0 -1.9949 -4.14496 -0.803228 4.99633 1.7768 0. 1
 -15 1 1 2 0 0 1.9949 4.14496 0.794481 4.99493 1.7768 0. -1
</event>
<event>
 4 80 1 -1 -1 -1
 11 -1 0 0 0 0 0 0 5 5 0 0. 9.
 -11 -1 0 0 0 0 0 0 -5 5 0 0. 9.
 15 1 1 2 0 0 1.18362 3.32874 3.05954 5 1.7768 0. 1
 -15 1 1 2 0 0 -1.18362 -3.32874 -3.05954 5 1.7768 0. -1
</event>
<event>
 4 80 1 -1 -1 -1
 11 -1 0 0 0 0 0 0 5 5 0 0. 9.
 -11 -1 0 0 0 0 0 0 -4.99999 4.99999 0 0. 9.
 15 1 1 2 0 0 -0.050986 -3.94235 2.50948 5 1.7768 0. -1
 -15 1 1 2 0 0 0.050986 3.94235 -2.50947 4.99999 1.7768 0. 1
</event>
<event>
 4 80 1 -1 -1 -1
 11 -1 0 0 0 0 0 0 5 5 0 0. 9.
 -11 -1 0 0 0 0 0 0 -5 5 0 0. 9.
 15 1 1 2 0 0 2.18247 -1.23166 3.94489 5 1.7768 0. 1
 -15 1 1 2 0 0 -2.18247 1.23166 -3.94489 5 1.7768 0. -1
</event>
<event>
 4 80 1 -1 -1 -1
 11 -1 0 0 0 0 0 0 5 5 0 0. 9.
 -11 -1 0 0 0 0 0 0 -3.94941 3.94941 0 0. 9.
 15 1 1 2 0 0 -0.0531914 -2.20996 3.97001 4.87909 1.7768 0. 1
 -15 1 1 2 0 0 0.0531914 2.20996 -2.91942 4.07032 1.7768 0. -1
</event>
<event>
 4 80 1 -1 -1 -1
 11 -1 0 0 0 0 0 0 5 5 0 0. 9.
 -11 -1 0 0 0 0 0 0 -4.99783 4.99783 0 0. 9.
 15 1 1 2 0 0 -3.91862 -0.351629 -2.51927 4.99837 1.7768 0. -1
 -15 1 1 2 0 0 3.91862 0.351629 2.52144 4.99946 1.7768 0. 1
</event>
<event>
 4 80 1 -1 -1 -1
 11 -1 0 0 0 0 0 0 5 5 0 0. 9.
 -11 -1 0 0 0 0 0 0 -4.99999 4.99999 0 0. 9.
 15 1 1 2 0 0 4.51561 -1.20033 -0.103665 5 1.7768 0. 1
 -15 1 1 2 0 0 -4.51561 1.20033 0.103673 5 1.7768 0. -1
</event>
<event>
 4 80 1 -1 -1 -1
 11 -1 0 0 0 0 0 0 5 5 0 0. 9.
 -11 -1 0 0 0 0 0 0 -5 5 0 0. 9.
 15 1 1 2 0 0 -0.497277 -2.31261 -4.03073 5 1.7768 0. -1
 -15 1 1 2 0 0 0.497277 2.31261 4.03073 5 1.7768 0. 1
</event>
<event>
 4 80 1 -1 -1 -1
 11 -1 0 0 0 0 0 0 5 5 0 0. 9.
 -11 -1 0 0 0 0 0 0 -5 5 0 0. 9.
 15 1 1 2 0 0 -2.05605 -3.64791 -2.07549 5 1.7768 0. 1
 -15 1 1 2 0 0 2.05605 3.64791 2.07549 5 1.7768 0. -1
</event>
<event>
 4 80 1 -1 -1 -1
 11 -1 0 0 0 0 0 0 5 5 0 0. 9.
 -11 -1 0 0 0 0 0 0 -5 5 0 0. 9.
 15 1 1 2 0 0 3.20467 -1.66618 2.96585 5 1.7768 0. -1
 -15 1 1 2 0 0 -3.20467 1.66618 -2.96585 5 1.7768 0. 1
</event>
<event>
 4 80 1 -1 -1 -1
 11 -1 0 0 0 0 0 0 5 5 0 0. 9.
 -11 -1 0 0 0 0 0 0 -5 5 0 0. 9.
 15 1 1 2 0 0 4.10677 -0.544258 -2.16345 5 1.7768 0. -1
 -15 1 1 2 0 0 -4.10677 0.544258 2.16345 5 1.7768 0. 1
</event>
<event>
 4 80 1 -1 -1 -1
 11 -1 0 0 0 0 0 0 5 5 0 0. 9.
 -11 -1 0 0 0 0 0 0 -5 5 0 0. 9.
 15 1 1 2 0 0 1.32414 -4.45589 -0.483672 5 1.7768 0. 1
 -15 1 1 2 0 0 -1.32414 4.45589 0.483672 5 1.7768 0. -1
</event>
<event>
 4 80 1 -1 -1 -1
 11 -1 0 0 0 0 0 0 2.79111 2.79111 0 0. 9.
 -11 -1 0 0 0 0 0 0 -5 5 0 0. 9.
 15 1 1 2 0 0 1.98886 -2.17753 -2.61581 4.32405 1.7768 0. -1
 -15 1 1 2 0 0 -1.98886 2.17753 0.406929 3.46706 1.7768 0. 1
</event>
<event>
 4 80 1 -1 -1 -1
 11 -1 0 0 0 0 0 0 5 5 0 0. 9.
 -11 -1 0 0 0 0 0 0 -5 5 0 0. 9.
 15 1 1 2 0 0 0.429632 -1.8755 4.25913 5 1.7768 0. 1
 -15 1 1 2 0 0 -0.429632 1.8755 -4.25913 5 1.7768 0. -1
</event>
<event>
 4 80 1 -1 -1 -1
 11 -1 0 0 0 0 0 0 5 5 0 0. 9.
 -11 -1 0 0 0 0 0 0 -2.04246 2.04246 0 0. 9.
 15 1 1 2 0 0 -0.233888 0.288009 4.37671 4.73824 1.7768 0. 1
 -15 1 1 2 0 0 0.233888 -0.288009 -1.41917 2.30422 1.7768 0. -1
</event>
<event>
 4 80 1 -1 -1 -1
 11 -1 0 0 0 0 0 0 4.80645 4.80645 0 0. 9.
 -11 -1 0 0 0 0 0 0 -5 5 0 0. 9.
 15 1 1 2 0 0 0.151237 3.27147 3.08962 4.84033 1.7768 0. 1
 -15 1 1 2 0 0 -0.151237 -3.27147 -3.28317 4.96611 1.7768 0. -1
</event>
<event>
 4 80 1 -1 -1 -1
 11 -1 0 0 0 0 0 0 4.99857 4.99857 0 0. 9.
 -11 -1 0 0 0 0 0 0 -5 5 0 0. 9.
 15 1 1 2 0 0 1.30139 -1.04832 -4.36449 4.99991 1.7768 0. 1
 -15 1 1 2 0 0 -1.30139 1.04832 4.36306 4.99866 1.7768 0. -1
</event>
<event>
 4 80 1 -1 -1 -1
 11 -1 0 0 0 0 0 0 3.97427 3.97427 0 0. 9.
 -11 -1 0 0 0 0 0 0 -4.99998 4.99998 0 0. 9.
 15 1 1 2 0 0 3.87595 0.528548 -1.7086 4.62379 1.7768 0. 1
 -15 1 1 2 0 0 -3.87595 -0.528548 0.682896 4.35045 1.7768 0. -1
</event>
<event>
 4 80 1 -1 -1 -1
 11 -1 0 0 0 0 0 0 5 5 0 0. 9.
 -11 -1 0 0 0 0 0 0 -4.92317 4.92317 0 0. 9.
 15 1 1 2 0 0 0.311415 3.07376 3.49007 4.98831 1.7768 0. 1
 -15 1 1 2 0 0 -0.311415 -3.07376 -3.41324 4.93486 1.7768 0. -1
</event>
<event>
 4 80 1 -1 -1 -1
 11 -1 0 0 0 0 0 0 4.99899 4.99899 0 0. 9.
 -11 -1 0 0 0 0 0 0 -4.40797 4.40797 0 0. 9.
 15 1 1 2 0 0 4.03536 -1.58411 0.00479148 4.68522 1.7768 0. 1
 -15 1 1 2 0 0 -4.03536 1.58411 0.586229 4.72175 1.7768 0. -1
</event>
<event>
 4 80 1 -1 -1 -1
 11 -1 0 0 0 0 0 0 5 5 0 0. 9.
 -11 -1 0 0 0 0 0 0 -4.99999 4.99999 0 0. 9.
 15 1 1 2 0 0 0.255675 -4.51833 -1.16682 4.99999 1.7768 0. 1
 -15 1 1 2 0 0 -0.255675 4.51833 1.16683 5 1.7768 0. -1
</event>
<event>
 4 80 1 -1 -1 -1
 11 -1 0 0 0 0 0 0 4.46424 4.46424 0 0. 9.
 -11 -1 0 0 0 0 0 0 -5 5 0 0. 9.
 15 1 1 2 0 0 2.84577 -0.532254 -3.55671 4.9183 1.7768 0. -1
 -15 1 1 2 0 0 -2.84577 0.532254 3.02095 4.54594 1.7768 0. 1
</event>
<event>
 4 80 1 -1 -1 -1
 11 -1 0 0 0 0 0 0 4.99999 4.99999 0 0. 9.
 -11 -1 0 0 0 0 0 0 -5 5 0 0. 9.
 15 1 1 2 0 0 2.71197 -1.82376 -3.34087 5 1.7768 0. 1
 -15 1 1 2 0 0 -2.71197 1.82376 3.34085 4.99999 1.7768 0. -1
</event>
<event>
 4 80 1 -1 -1 -1
 11 -1 0 0 0 0 0 0 5 5 0 0. 9.
 -11 -1 0 0 0 0 0 0 -4.66783 4.66783 0 0. 9.
 15 1 1 2 0 0 -0.0688867 -4.47901 -0.173401 4.82225 1.7768 0. 1
 -15 1 1 2 0 0 0.0688867 4.47901 0.50557 4.84558 1.7768 0. -1
</event>
<event>
 4 80 1 -1 -1 -1
 11 -1 0 0 0 0 0 0 5 5 0 0. 9.
 -11 -1 0 0 0 0 0 0 -5 5 0 0. 9.
 15 1 1 2 0 0 -1.14228 4.3332 -1.32697 5 1.7768 0. -1
 -15 1 1 2 0 0 1.14228 -4.3332 1.32697 5 1.7768 0. 1
</event>
<event>
 4 80 1 -1 -1 -1
 11 -1 0 0 0 0 0 0 5 5 0 0. 9.
 -11 -1 0 0 0 0 0 0 -5 5 0 0. 9.
 15 1 1 2 0 0 -0.838573 1.66165 4.28696 5 1.7768 0. 1
 -15 1 1 2 0 0 0.838573 -1.66165 -4.28696 5 1.7768 0. -1
</event>
<event>
 4 80 1 -1 -1 -1
 11 -1 0 0 0 0 0 0 5 5 0 0. 9.
 -11 -1 0 0 0 0 0 0 -5 5 0 0. 9.
 15 1 1 2 0 0 -0.888119 1.83756 4.20439 5 1.7768 0. -1
 -15 1 1 2 0 0 0.888119 -1.83756 -4.20439 5 1.7768 0. 1
</event>
<event>
 4 80 1 -1 -1 -1
 11 -1 0 0 0 0 0 0 5 5 0 0. 9.
 -11 -1 0 0 0 0 0 0 -4.99999 4.99999 0 0. 9.
 15 1 1 2 0 0 1.11809 3.06474 3.34657 5 1.7768 0. -1
 -15 1 1 2 0 0 -1.11809 -3.06474 -3.34656 4.99999 1.7768 0. 1
</event>
<event>
 4 80 1 -1 -1 -1
 11 -1 0 0 0 0 0 0 4.99998 4.99998 0 0. 9.
 -11 -1 0 0 0 0 0 0 -5 5 0 0. 9.
 15 1 1 2 0 0 3.21644 3.30524 -0.756378 4.99999 1.7768 0. -1
 -15 1 1 2 0 0 -3.21644 -3.30524 0.756359 4.99999 1.7768 0. 1
</event>
<event>
 4 80 1 -1 -1 -1
 11 -1 0 0 0 0 0 0 4.99333 4.99333 0 0. 9.
 -11 -1 0 0 0 0 0 0 -4.99999 4.99999 0 0. 9.
 15 1 1 2 0 0 -3.08593 -2.68231 -2.2597 4.99817 1.7768 0. 1
 -15 1 1 2 0 0 3.08593 2.68231 2.25303 4.99516 1.7768 0. -1
</event>
<event>
 4 80 1 -1 -1 -1
 11 -1 0 0 0 0 0 0 5 5 0 0. 9.
 -11 -1 0 0 0 0 0 0 -5 5 0 0. 9.
 15 1 1 2 0 0 1.38329 -1.03854 -4.34168 5 1.7768 0. -1
 -15 1 1 2 0 0 -1.38329 1.03854 4.34168 5 1.7768 0. 1
</event>
<event>
 4 80 1 -1 -1 -1
 11 -1 0 0 0 0 0 0 5 5 0 0. 9.
 -11 -1 0 0 0 0 0 0 -5 5 0 0. 9.
 15 1 1 2 0 0 4.33138 1.09777 1.3698 5 1.7768 0. 1
 -15 1 1 2 0 0 -4.33138 -1.09777 -1.3698 5 1.7768 0. -1
</event>
<event>
 4 80 1 -1 -1 -1
 11 -1 0 0 0 0 0 0 5 5 0 0. 9.
 -11 -1 0 0 0 0 0 0 -4.83333 4.83333 0 0. 9.
 15 1 1 2 0 0 -1.89334 -3.82938 -1.57824 4.88851 1.7768 0. -1
 -15 1 1 2 0 0 1.89334 3.82938 1.74491 4.94483 1.7768 0. 1
</event>
<event>
 4 80 1 -1 -1 -1
 11 -1 0 0 0 0 0 0 5 5 0 0. 9.
 -11 -1 0 0 0 0 0 0 -4.99626 4.99626 0 0. 9.
 15 1 1 2 0 0 -2.10727 -3.4872 -2.28338 4.99727 1.7768 0. 1
 -15 1 1 2 0 0 2.10727 3.4872 2.28712 4.99898 1.7768 0. -1
</event>
<event>
 4 80 1 -1 -1 -1
 11 -1 0 0 0 0 0 0 5 5 0 0. 9.
 -11 -1 0 0 0 0 0 0 -4.99962 4.99962 0 0. 9.
 15 1 1 2 0 0 -2.42059 3.58184 -1.77508 4.99974 1.7768 0. -1
 -15 1 1 2 0 0 2.42059 -3.58184 1.77546 4.99988 1.7768 0. 1
</event>
<event>
 4 80 1 -1 -1 -1
 11 -1 0 0 0 0 0 0 4.69205 4.69205 0 0. 9.
 -11 -1 0 0 0 0 0 0 -5 5 0 0. 9.
 15 1 1 2 0 0 1.97714 -4.02322 -0.609336 4.86049 1.7768 0. 1
 -15 1 1 2 0 0 -1.97714 4.02322 0.301386 4.83156 1.7768 0. -1
</event>
<event>
 4 80 1 -1 -1 -1
 11 -1 0 0 0 0 0 0 4.898 4.898 0 0. 9.
 -11 -1 0 0 0 0 0 0 -4.99982 4.99982 0 0. 9.
 15 1 1 2 0 0 -0.868249 -0.999703 -4.47586 4.99443 1.7768 0. -1
 -15 1 1 2 0 0 0.868249 0.999703 4.37404 4.90339 1.7768 0. 1
</event>
<event>
 4 80 1 -1 -1 -1
 11 -1 0 0 0 0 0 0 3.23249 3.23249 0 0. 9.
 -11 -1 0 0 0 0 0 0 -4.99879 4.99879 0 0. 9.
 15 1 1 2 0 0 2.79016 1.56113 0.823536 3.74941 1.7768 0. 1
 -15 1 1 2 0 0 -2.79016 -1.56113 -2.58984 4.48187 1.7768 0. -1
</event>
<event>
 4 80 1 -1 -1 -1
 11 -1 0 0 0 0 0 0 5 5 0 0. 9.
 -11 -1 0 0 0 0 0 0 -4.73552 4.73552 0 0. 9.
 15 1 1 2 0 0 4.02575 -2.00447 0.675849 4.88253 1.7768 0. 1
 -15 1 1 2 0 0 -4.02575 2.00447 -0.411366 4.85299 1.7768 0. -1
</event>
<event>
 4 80 1 -1 -1 -1
 11 -1 0 0 0 0 0 0 5 5 0 0. 9.
 -11 -1 0 0 0 0 0 0 -4.99992 4.99992 0 0. 9.
 15 1 1 2 0 0 2.55066 1.96658 -3.38648 4.99993 1.7768 0. 1
 -15 1 1 2 0 0 -2.55066 -1.96658 3.38657 4.99999 1.7768 0. -1
</event>
<event>
 4 80 1 -1 -1 -1
 11 -1 0 0 0 0 0 0 5 5 0 0. 9.
 -11 -1 0 0 0 0 0 0 -5 5 0 0. 9.
 15 1 1 2 0 0 1.40464 -4.40469 -0.684052 5 1.7768 0. 1
 -15 1 1 2 0 0 -1.40464 4.40469 0.684051 5 1.7768 0. -1
</event>
<event>
 4 80 1 -1 -1 -1
 11 -1 0 0 0 0 0 0 4.99999 4.99999 0 0. 9.
 -11 -1 0 0 0 0 0 0 -5 5 0 0. 9.
 15 1 1 2 0 0 1.05553 3.35993 -3.07229 5 1.7768 0. -1
 -15 1 1 2 0 0 -1.05553 -3.35993 3.07228 4.99999 1.7768 0. 1
</event>
<event>
 4 80 1 -1 -1 -1
 11 -1 0 0 0 0 0 0 4.9992 4.9992 0 0. 9.
 -11 -1 0 0 0 0 0 0 -5 5 0 0. 9.
 15 1 1 2 0 0 -0.529777 -3.13056 3.42847 4.99932 1.7768 0. 1
 -15 1 1 2 0 0 0.529777 3.13056 -3.42928 4.99987 1.7768 0. -1
</event>
<event>
 4 80 1 -1 -1 -1
 11 -1 0 0 0 0 0 0 5 5 0 0. 9.
 -11 -1 0 0 0 0 0 0 -4.88123 4.88123 0 0. 9.
 15 1 1 2 0 0 -1.1981 2.05427 -3.88969 4.89314 1.7768 0. -1
 -15 1 1 2 0 0 1.1981 -2.05427 4.00846 4.98808 1.7768 0. 1
</event>
<event>
 4 80 1 -1 -1 -1
 11 -1 0 0 0 0 0 0 5 5 0 0. 9.
 -11 -1 0 0 0 0 0 0 -5 5 0 0. 9.
 15 1 1 2 0 0 -1.95416 -1.52294 -3.96285 5 1.7768 0. -1
 -15 1 1 2 0 0 1.95416 1.52294 3.96285 5 1.7768 0. 1
</event>
<event>
 4 80 1 -1 -1 -1
 11 -1 0 0 0 0 0 0 5 5 0 0. 9.
 -11 -1 0 0 0 0 0 0 -4.92984 4.92984 0 0. 9.
 15 1 1 2 0 0 1.09306 -2.96375 3.42823 4.9889 1.7768 0. -1
 -15 1 1 2 0 0 -1.09306 2.96375 -3.35807 4.94095 1.7768 0. 1
</event>
<event>
 4 80 1 -1 -1 -1
 11 -1 0 0 0 0 0 0 2.18358 2.18358 0 0. 9.
 -11 -1 0 0 0 0 0 0 -4.99999 4.99999 0 0. 9.
 15 1 1 2 0 0 -2.2229 -1.33797 -0.305675 3.15953 1.7768 0. 1
 -15 1 1 2 0 0 2.2229 1.33797 -2.51073 4.02404 1.7768 0. -1
</event>
<event>
 4 80 1 -1 -1 -1
 11 -1 0 0 0 0 0 0 4.9997 4.9997 0 0. 9.
 -11 -1 0 0 0 0 0 0 -2.40826 2.40826 0 0. 9.
 15 1 1 2 0 0 -1.31034 -2.58153 0.539745 3.43953 1.7768 0. -1
 -15 1 1 2 0 0 1.31034 2.58153 2.0517 3.96844 1.7768 0. 1
</event>
<event>
 4 80 1 -1 -1 -1
 11 -1 0 0 0 0 0 0 5 5 0 0. 9.
 -11 -1 0 0 0 0 0 0 -4.99625 4.99625 0 0. 9.
 15 1 1 2 0 0 3.75543 -0.771971 2.67102 4.99913 1.7768 0. 1
 -15 1 1 2 0 0 -3.75543 0.771971 -2.66727 4.99712 1.7768 0. -1
</event>
<event>
 4 80 1 -1 -1 -1
 11 -1 0 0 0 0 0 0 5 5 0 0. 9.
 -11 -1 0 0 0 0 0 0 -4.99144 4.99144 0 0. 9.
 15 1 1 2 0 0 -0.535716 1.87206 4.24785 4.99936 1.7768 0. 1
 -15 1 1 2 0 0 0.535716 -1.87206 -4.23929 4.99208 1.7768 0. -1
</event>
<event>
 4 80 1 -1 -1 -1
 11 -1 0 0 0 0 0 0 5 5 0 0. 9.
 -11 -1 0 0 0 0 0 0 -4.84 4.84 0 0. 9.
 15 1 1 2 0 0 -1.84408 1.55029 -3.82414 4.85652 1.7768 0. -1
 -15 1 1 2 0 0 1.84408 -1.55029 3.98414 4.98348 1.7768 0. 1
</event>
<event>
 4 80 1 -1 -1 -1
 11 -1 0 0 0 0 0 0 5 5 0 0. 9.
 -11 -1 0 0 0 0 0 0 -5 5 0 0. 9.
 15 1 1 2 0 0 -3.28938 2.49826 -2.18653 5 1.7768 0. -1
 -15 1 1 2 0 0 3.28938 -2.49826 2.18653 5 1.7768 0. 1
</event>
<event>
 4 80 1 -1 -1 -1
 11 -1 0 0 0 0 0 0 5 5 0 0. 9.
 -11 -1 0 0 0 0 0 0 -5 5 0 0. 9.
 15 1 1 2 0 0 -4.34325 0.0827837 1.72383 5 1.7768 0. 1
 -15 1 1 2 0 0 4.34325 -0.0827837 -1.72383 5 1.7768 0. -1
</event>
<event>
 4 80 1 -1 -1 -1
 11 -1 0 0 0 0 0 0 4.99986 4.99986 0 0. 9.
 -11 -1 0 0 0 0 0 0 -1.72618 1.72618 0 0. 9.
 15 1 1 2 0 0 -1.48489 1.0581 -0.041073 2.54635 1.7768 0. -1
 -15 1 1 2 0 0 1.48489 -1.0581 3.31475 4.17969 1.7768 0. 1
</event>
<event>
 4 80 1 -1 -1 -1
 11 -1 0 0 0 0 0 0 4.97074 4.97074 0 0. 9.
 -11 -1 0 0 0 0 0 0 -5 5 0 0. 9.
 15 1 1 2 0 0 4.35703 1.02339 -1.30495 4.98916 1.7768 0. 1
 -15 1 1 2 0 0 -4.35703 -1.02339 1.27569 4.98159 1.7768 0. -1
</event>
<event>
 4 80 1 -1 -1 -1
 11 -1 0 0 0 0 0 0 4.8876 4.8876 0 0. 9.
 -11 -1 0 0 0 0 0 0 -0.794042 0.794042 0 0. 9.
 15 1 1 2 0 0 -0.815326 0.110637 2.35684 3.06421 1.7768 0. -1
 -15 1 1 2 0 0 0.815326 -0.110637 1.73672 2.61743 1.7768 0. 1
</event>
<event>
 4 80 1 -1 -1 -1
 11 -1 0 0 0 0 0 0 5 5 0 0. 9.
 -11 -1 0 0 0 0 0 0 -5 5 0 0. 9.
 15 1 1 2 0 0 -2.84441 0.549761 -3.66734 5 1.7768 0. -1
 -15 1 1 2 0 0 2.84441 -0.549761 3.66734 5 1.7768 0. 1
</event>
<event>
 4 80 1 -1 -1 -1
 11 -1 0 0 0 0 0 0 5 5 0 0. 9.
 -11 -1 0 0 0 0 0 0 -5 5 0 0. 9.
 15 1 1 2 0 0 -3.28704 3.19541 -0.909383 5 1.7768 0. 1
 -15 1 1 2 0 0 3.28704 -3.19541 0.909383 5 1.7768 0. -1
</event>
<event>
 4 80 1 -1 -1 -1
 11 -1 0 0 0 0 0 0 4.99995 4.99995 0 0. 9.
 -11 -1 0 0 0 0 0 0 -2.95399 2.95399 0 0. 9.
 15 1 1 2 0 0 2.90052 0.0911298 2.87145 4.45244 1.7768 0. -1
 -15 1 1 2 0 0 -2.90052 -0.0911298 -0.825485 3.5015 1.7768 0. 1
</event>
<event>
 4 80 1 -1 -1 -1
 11 -1 0 0 0 0 0 0 5 5 0 0. 9.
 -11 -1 0 0 0 0 0 0 -4.98364 4.98364 0 0. 9.
 15 1 1 2 0 0 2.73622 -0.232665 3.77905 4.998 1.7768 0. -1
 -15 1 1 2 0 0 -2.73622 0.232665 -3.76269 4.98564 1.7768 0. 1
</event>
<event>
 4 80 1 -1 -1 -1
 11 -1 0 0 0 0 0 0 5 5 0 0. 9.
 -11 -1 0 0 0 0 0 0 -5 5 0 0. 9.
 15 1 1 2 0 0 1.06094 4.15333 -1.86187 5 1.7768 0. 1
 -15 1 1 2 0 0 -1.06094 -4.15333 1.86187 5 1.7768 0. -1
</event>
<event>
 4 80 1 -1 -1 -1
 11 -1 0 0 0 0 0 0 4.99285 4.99285 0 0. 9.
 -11 -1 0 0 0 0 0 0 -4.69237 4.69237 0 0. 9.
 15 1 1 2 0 0 -0.600282 0.512416 -4.28447 4.70503 1.7768 0. -1
 -15 1 1 2 0 0 0.600282 -0.512416 4.58494 4.9802 1.7768 0. 1
</event>
<event>
 4 80 1 -1 -1 -1
 11 -1 0 0 0 0 0 0 4.99995 4.99995 0 0. 9.
 -11 -1 0 0 0 0 0 0 -4.18372 4.18372 0 0. 9.
 15 1 1 2 0 0 0.501176 -3.23626 3.07122 4.82853 1.7768 0. -1
 -15 1 1 2 0 0 -0.501176 3.23626 -2.25498 4.35514 1.7768 0. 1
</event>
<event>
 4 80 1 -1 -1 -1
 11 -1 0 0 0 0 0 0 4.98219 4.98219 0 0. 9.
 -11 -1 0 0 0 0 0 0 -3.81051 3.81051 0 0. 9.
 15 1 1 2 0 0 -2.33311 -0.878364 -2.54239 3.9795 1.7768 0. -1
 -15 1 1 2 0 0 2.33311 0.878364 3.71407 4.81321 1.7768 0. 1
</event>
<event>
 4 80 1 -1 -1 -1
 11 -1 0 0 0 0 0 0 5 5 0 0. 9.
 -11 -1 0 0 0 0 0 0 -0.675517 0.675517 0 0. 9.
 15 1 1 2 0 0 0.249945 -0.392642 2.24979 2.90447 1.7768 0. -1
 -15 1 1 2 0 0 -0.249945 0.392642 2.07469 2.77105 1.7768 0. 1
</event>
<event>
 4 80 1 -1 -1 -1
 11 -1 0 0 0 0 0 0 5 5 0 0. 9.
 -11 -1 0 0 0 0 0 0 -3.747 3.747 0 0. 9.
 15 1 1 2 0 0 -0.21573 3.94009 0.545431 4.36189 1.7768 0. -1
 -15 1 1 2 0 0 0.21573 -3.94009 0.707566 4.38511 1.7768 0. 1
</event>
<event>
 4 80 1 -1 -1 -1
 11 -1 0 0 0 0 0 0 4.99956 4.99956 0 0. 9.
 -11 -1 0 0 0 0 0 0 -5 5 0 0. 9.
 15 1 1 2 0 0 -3.75359 -2.73315 0.529406 4.99976 1.7768 0. -1
 -15 1 1 2 0 0 3.75359 2.73315 -0.529842 4.99981 1.7768 0. 1
</event>
<event>
 4 80 1 -1 -1 -1
 11 -1 0 0 0 0 0 0 5 5 0 0. 9.
 -11 -1 0 0 0 0 0 0 -5 5 0 0. 9.
 15 1 1 2 0 0 -3.86815 -2.09729 1.57513 5 1.7768 0. -1
 -15 1 1 2 0 0 3.86815 2.09729 -1.57513 5 1.7768 0. 1
</event>
<event>
 4 80 1 -1 -1 -1
 11 -1 0 0 0 0 0 0 5 5 0 0. 9.
 -11 -1 0 0 0 0 0 0 -5 5 0 0. 9.
 15 1 1 2 0 0 -2.20287 1.48398 3.84544 5 1.7768 0. 1
 -15 1 1 2 0 0 2.20287 -1.48398 -3.84544 5 1.7768 0. -1
</event>
<event>
 4 80 1 -1 -1 -1
 11 -1 0 0 0 0 0 0 5 5 0 0. 9.
 -11 -1 0 0 0 0 0 0 -4.99909 4.99909 0 0. 9.
 15 1 1 2 0 0 -3.24833 -0.837176 -3.25304 4.99925 1.7768 0. 1
 -15 1 1 2 0 0 3.24833 0.837176 3.25395 4.99984 1.7768 0. -1
</event>
<event>
 4 80 1 -1 -1 -1
 11 -1 0 0 0 0 0 0 1.44208 1.44208 0 0. 9.
 -11 -1 0 0 0 0 0 0 -5 5 0 0. 9.
 15 1 1 2 0 0 1.72989 -0.326916 -0.607754 2.57419 1.7768 0. 1
 -15 1 1 2 0 0 -1.72989 0.326916 -2.95016 3.86789 1.7768 0. -1
</event>
<event>
 4 80 1 -1 -1 -1
 11 -1 0 0 0 0 0 0 4.99999 4.99999 0 0. 9.
 -11 -1 0 0 0 0 0 0 -5 5 0 0. 9.
 15 1 1 2 0 0 1.60673 -1.67019 4.05846 4.99999 1.7768 0. -1
 -15 1 1 2 0 0 -1.60673 1.67019 -4.05847 5 1.7768 0. 1
</event>
<event>
 4 80 1 -1 -1 -1
 11 -1 0 0 0 0 0 0 5 5 0 0. 9.
 -11 -1 0 0 0 0 0 0 -4.79977 4.79977 0 0. 9.
 15 1 1 2 0 0 -0.920102 -0.492717 -4.34511 4.80906 1.7768 0. 1
 -15 1 1 2 0 0 0.920102 0.492717 4.54534 4.99071 1.7768 0. -1
</event>
<event>
 4 80 1 -1 -1 -1
 11 -1 0 0 0 0 0 0 4.98907 4.98907 0 0. 9.
 -11 -1 0 0 0 0 0 0 -5 5 0 0. 9.
 15 1 1 2 0 0 2.99279 1.44076 3.27404 4.99095 1.7768 0. -1
 -15 1 1 2 0 0 -2.99279 -1.44076 -3.28496 4.99812 1.7768 0. 1
</event>
<event>
 4 80 1 -1 -1 -1
 11 -1 0 0 0 0 0 0 2.84475 2.84475 0 0. 9.
 -11 -1 0 0 0 0 0 0 -5 5 0 0. 9.
 15 1 1 2 0 0 2.31701 2.23554 -1.94767 4.16141 1.7768 0. -1
 -15 1 1 2 0 0 -2.31701 -2.23554 -0.207581 3.68334 1.7768 0. 1
</event>
<event>
 4 80 1 -1 -1 -1
 11 -1 0 0 0 0 0 0 5 5 0 0. 9.
 -11 -1 0 0 0 0 0 0 -5 5 0 0. 9.
 15 1 1 2 0 0 2.50141 -0.758267 3.8743 5 1.7768 0. -1
 -15 1 1 2 0 0 -2.50141 0.758267 -3.8743 5 1.7768 0. 1
</event>
<event>
 4 80 1 -1 -1 -1
 11 -1 0 0 0 0 0 0 4.99999 4.99999 0 0. 9.
 -11 -1 0 0 0 0 0 0 -5 5 0 0. 9.
 15 1 1 2 0 0 -2.67036 3.68906 -1.04985 4.99999 1.7768 0. 1
 -15 1 1 2 0 0 2.67036 -3.68906 1.04984 4.99999 1.7768 0. -1
</event>
<event>
 4 80 1 -1 -1 -1
 11 -1 0 0 0 0 0 0 5 5 0 0. 9.
 -11 -1 0 0 0 0 0 0 -4.98048 4.98048 0 0. 9.
 15 1 1 2 0 0 -3.13102 -2.15582 -2.69096 4.98496 1.7768 0. 1
 -15 1 1 2 0 0 3.13102 2.15582 2.71047 4.99552 1.7768 0. -1
</event>
<event>
 4 80 1 -1 -1 -1
 11 -1 0 0 0 0 0 0 5 5 0 0. 9.
 -11 -1 0 0 0 0 0 0 -4.99999 4.99999 0 0. 9.
 15 1 1 2 0 0 1.86867 2.8959 -3.15658 4.99999 1.7768 0. -1
 -15 1 1 2 0 0 -1.86867 -2.8959 3.15659 5 1.7768 0. 1
</event>
<event>
 4 80 1 -1 -1 -1
 11 -1 0 0 0 0 0 0 4.87323 4.87323 0 0. 9.
 -11 -1 0 0 0 0 0 0 -4.90814 4.90814 0 0. 9.
 15 1 1 2 0 0 -4.1866 0.972421 -1.52991 4.89608 1.7768 0. -1
 -15 1 1 2 0 0 4.1866 -0.972421 1.495 4.88528 1.7768 0. 1
</event>
<event>
 4 80 1 -1 -1 -1
 11 -1 0 0 0 0 0 0 5 5 0 0. 9.
 -11 -1 0 0 0 0 0 0 -4.88807 4.88807 0 0. 9.
 15 1 1 2 0 0 -4.51627 0.00192191 0.997245 4.95469 1.7768 0. 1
 -15 1 1 2 0 0 4.51627 -0.00192191 -0.88532 4.93338 1.7768 0. -1
</event>
<event>
 4 80 1 -1 -1 -1
 11 -1 0 0 0 0 0 0 5 5 0 0. 9.
 -11 -1 0 0 0 0 0 0 -5 5 0 0. 9.
 15 1 1 2 0 0 3.46702 -3.04461 -0.743234 5 1.7768 0. -1
 -15 1 1 2 0 0 -3.46702 3.04461 0.743234 5 1.7768 0. 1
</event>
<event>
 4 80 1 -1 -1 -1
 11 -1 0 0 0 0 0 0 5 5 0 0. 9.
 -11 -1 0 0 0 0 0 0 -4.82143 4.82143 0 0. 9.
 15 1 1 2 0 0 -0.418371 2.43028 3.94584 4.98083 1.7768 0. -1
 -15 1 1 2 0 0 0.418371 -2.43028 -3.76727 4.84059 1.7768 0. 1
</event>
<event>
 4 80 1 -1 -1 -1
 11 -1 0 0 0 0 0 0 4.99985 4.99985 0 0. 9.
 -11 -1 0 0 0 0 0 0 -5 5 0 0. 9.
 15 1 1 2 0 0 4.01904 -0.217754 -2.37524 4.99996 1.7768 0. 1
 -15 1 1 2 0 0 -4.01904 0.217754 2.37509 4.99989 1.7768 0. -1
</event>
<event>
 4 80 1 -1 -1 -1
 11 -1 0 0 0 0 0 0 5 5 0 0. 9.
 -11 -1 0 0 0 0 0 0 -5 5 0 0. 9.
 15 1 1 2 0 0 2.33216 -0.810493 3.96818 5 1.7768 0. -1
 -15 1 1 2 0 0 -2.33216 0.810493 -3.96818 5 1.7768 0. 1
</event>
<event>
 4 80 1 -1 -1 -1
 11 -1 0 0 0 0 0 0 5 5 0 0. 9.
 -11 -1 0 0 0 0 0 0 -5 5 0 0. 9.
 15 1 1 2 0 0 -0.873525 -4.19839 1.85817 5 1.7768 0. 1
 -15 1 1 2 0 0 0.873525 4.19839 -1.85817 5 1.7768 0. -1
</event>
<event>
 4 80 1 -1 -1 -1
 11 -1 0 0 0 0 0 0 5 5 0 0. 9.
 -11 -1 0 0 0 0 0 0 -4.85849 4.85849 0 0. 9.
 15 1 1 2 0 0 0.576258 -0.465257 -4.46691 4.86411 1.7768 0. 1
 -15 1 1 2 0 0 -0.576258 0.465257 4.60842 4.99438 1.7768 0. -1
</event>
<event>
 4 80 1 -1 -1 -1
 11 -1 0 0 0 0 0 0 5 5 0 0. 9.
 -11 -1 0 0 0 0 0 0 -4.99723 4.99723 0 0. 9.
 15 1 1 2 0 0 0.238891 -2.23472 -4.09463 4.99748 1.7768 0. 1
 -15 1 1 2 0 0 -0.238891 2.23472 4.09741 4.99975 1.7768 0. -1
</event>
<event>
 4 80 1 -1 -1 -1
 11 -1 0 0 0 0 0 0 5 5 0 0. 9.
 -11 -1 0 0 0 0 0 0 -4.91681 4.91681 0 0. 9.
 15 1 1 2 0 0 0.720277 0.424812 -4.51126 4.92021 1.7768 0. 1
 -15 1 1 2 0 0 -0.720277 -0.424812 4.59445 4.9966 1.7768 0. -1
</event>
<event>
 4 80 1 -1 -1 -1
 11 -1 0 0 0 0 0 0 5 5 0 0. 9.
 -11 -1 0 0 0 0 0 0 -5 5 0 0. 9.
 15 1 1 2 0 0 0.163816 -0.81336 -4.59933 5 1.7768 0. -1
 -15 1 1 2 0 0 -0.163816 0.81336 4.59933 5 1.7768 0. 1
</event>
<event>
 4 80 1 -1 -1 -1
 11 -1 0 0 0 0 0 0 5 5 0 0. 9.
 -11 -1 0 0 0 0 0 0 -4.75683 4.75683 0 0. 9.
 15 1 1 2 0 0 -1.80181 4.00523 -1.0355 4.84958 1.7768 0. 1
 -15 1 1 2 0 0 1.80181 -4.00523 1.27867 4.90725 1.7768 0. -1
</event>
<event>
 4 80 1 -1 -1 -1
 11 -1 0 0 0 0 0 0 5 5 0 0. 9.
 -11 -1 0 0 0 0 0 0 -4.99999 4.99999 0 0. 9.
 15 1 1 2 0 0 2.77296 3.6829 0.76758 5 1.7768 0. -1
 -15 1 1 2 0 0 -2.77296 -3.6829 -0.767575 5 1.7768 0. 1
</event>
<event>
 4 80 1 -1 -1 -1
 11 -1 0 0 0 0 0 0 4.92708 4.92708 0 0. 9.
 -11 -1 0 0 0 0 0 0 -5 5 0 0. 9.
 15 1 1 2 0 0 2.12887 -3.77287 -1.68302 4.97563 1.7768 0. 1
 -15 1 1 2 0 0 -2.12887 3.77287 1.6101 4.95144 1.7768 0. -1
</event>
<event>
 4 80 1 -1 -1 -1
 11 -1 0 0 0 0 0 0 5 5 0 0. 9.
 -11 -1 0 0 0 0 0 0 -4.7858 4.7858 0 0. 9.
 15 1 1 2 0 0 1.07148 -3.52371 -2.57807 4.83413 1.7768 0. 1
 -15 1 1 2 0 0 -1.07148 3.52371 2.79227 4.95168 1.7768 0. -1
</event>
<event>
 4 80 1 -1 -1 -1
 11 -1 0 0 0 0 0 0 5 5 0 0. 9.
 -11 -1 0 0 0 0 0 0 -5 5 0 0. 9.
 15 1 1 2 0 0 -0.475637 1.92306 4.23295 5 1.7768 0. -1
 -15 1 1 2 0 0 0.475637 -1.92306 -4.23295 5 1.7768 0. 1
</event>
<event>
 4 80 1 -1 -1 -1
 11 -1 0 0 0 0 0 0 5 5 0 0. 9.
 -11 -1 0 0 0 0 0 0 -5 5 0 0. 9.
 15 1 1 2 0 0 0.127709 4.5523 -1.05002 5 1.7768 0. 1
 -15 1 1 2 0 0 -0.127709 -4.5523 1.05002 5 1.7768 0. -1
</event>
<event>
 4 80 1 -1 -1 -1
 11 -1 0 0 0 0 0 0 4.98579 4.98579 0 0. 9.
 -11 -1 0 0 0 0 0 0 -4.99994 4.99994 0 0. 9.
 15 1 1 2 0 0 -3.73445 -0.184099 -2.79829 4.99682 1.7768 0. -1
 -15 1 1 2 0 0 3.73445 0.184099 2.78414 4.98891 1.7768 0. 1
</event>
<event>
 4 80 1 -1 -1 -1
 11 -1 0 0 0 0 0 0 5 5 0 0. 9.
 -11 -1 0 0 0 0 0 0 -0.874855 0.874855 0 0. 9.
 15 1 1 2 0 0 0.55997 -0.510084 3.1886 3.72809 1.7768 0. -1
 -15 1 1 2 0 0 -0.55997 0.510084 0.936542 2.14676 1.7768 0. 1
</event>
<event>
 4 80 1 -1 -1 -1
 11 -1 0 0 0 0 0 0 5 5 0 0. 9.
 -11 -1 0 0 0 0 0 0 -5 5 0 0. 9.
 15 1 1 2 0 0 -4.25329 -1.91719 -0.276024 5 1.7768 0. -1
 -15 1 1 2 0 0 4.25329 1.91719 0.276024 5 1.7768 0. 1
</event>
<event>
 4 80 1 -1 -1 -1
 11 -1 0 0 0 0 0 0 5 5 0 0. 9.
 -11 -1 0 0 0 0 0 0 -5 5 0 0. 9.
 15 1 1 2 0 0 -4.56816 0.808998 -0.56545 5 1.7768 0. -1
 -15 1 1 2 0 0 4.56816 -0.808998 0.56545 5 1.7768 0. 1
</event>
<event>
 4 80 1 -1 -1 -1
 11 -1 0 0 0 0 0 0 5 5 0 0. 9.
 -11 -1 0 0 0 0 0 0 -5 5 0 0. 9.
 15 1 1 2 0 0 0.435584 -2.57642 3.87487 5 1.7768 0. 1
 -15 1 1 2 0 0 -0.435584 2.57642 -3.87487 5 1.7768 0. -1
</event>
<event>
 4 80 1 -1 -1 -1
 11 -1 0 0 0 0 0 0 4.99998 4.99998 0 0. 9.
 -11 -1 0 0 0 0 0 0 -5 5 0 0. 9.
 15 1 1 2 0 0 2.07772 1.56563 -3.88254 5 1.7768 0. 1
 -15 1 1 2 0 0 -2.07772 -1.56563 3.88252 4.99998 1.7768 0. -1
</event>
<event>
 4 80 1 -1 -1 -1
 11 -1 0 0 0 0 0 0 4.99996 4.99996 0 0. 9.
 -11 -1 0 0 0 0 0 0 -5 5 0 0. 9.
 15 1 1 2 0 0 -3.59917 -2.12553 -2.09051 4.99999 1.7768 0. -1
 -15 1 1 2 0 0 3.59917 2.12553 2.09048 4.99997 1.7768 0. 1
</event>
<event>
 4 80 1 -1 -1 -1
 11 -1 0 0 0 0 0 0 1.86943 1.86943 0 0. 9.
 -11 -1 0 0 0 0 0 0 -4.9953 4.9953 0 0. 9.
 15 1 1 2 0 0 -1.42067 -0.998354 0.435481 2.52238 1.7768 0. -1
 -15 1 1 2 0 0 1.42067 0.998354 -3.56135 4.34235 1.7768 0. 1
</event>
<event>
 4 80 1 -1 -1 -1
 11 -1 0 0 0 0 0 0 5 5 0 0. 9.
 -11 -1 0 0 0 0 0 0 -5 5 0 0. 9.
 15 1 1 2 0 0 2.78782 0.22126 -3.74451 5 1.7768 0. -1
 -15 1 1 2 0 0 -2.78782 -0.22126 3.74451 5 1.7768 0. 1
</event>
<event>
 4 80 1 -1 -1 -1
 11 -1 0 0 0 0 0 0 5 5 0 0. 9.
 -11 -1 0 0 0 0 0 0 -4.99996 4.99996 0 0. 9.
 15 1 1 2 0 0 -1.53392 1.96111 -3.95513 4.99996 1.7768 0. 1
 -15 1 1 2 0 0 1.53392 -1.96111 3.95517 5 1.7768 0. -1
</event>
<event>
 4 80 1 -1 -1 -1
 11 -1 0 0 0 0 0 0 2.56673 2.56673 0 0. 9.
 -11 -1 0 0 0 0 0 0 -4.99634 4.99634 0 0. 9.
 15 1 1 2 0 0 1.92043 -2.40401 -0.743468 3.63012 1.7768 0. -1
 -15 1 1 2 0 0 -1.92043 2.40401 -1.68615 3.93295 1.7768 0. 1
</event>
<event>
 4 80 1 -1 -1 -1
 11 -1 0 0 0 0 0 0 4.93829 4.93829 0 0. 9.
 -11 -1 0 0 0 0 0 0 -5 5 0 0. 9.
 15 1 1 2 0 0 -1.77641 -0.81335 -4.24004 4.99528 1.7768 0. 1
 -15 1 1 2 0 0 1.77641 0.81335 4.17833 4.94301 1.7768 0. -1
</event>
<event>
 4 80 1 -1 -1 -1
 11 -1 0 0 0 0 0 0 5 5 0 0. 9.
 -11 -1 0 0 0 0 0 0 -4.97603 4.97603 0 0. 9.
 15 1 1 2 0 0 -3.56328 0.882091 -2.85985 4.98112 1.7768 0. -1
 -15 1 1 2 0 0 3.56328 -0.882091 2.88382 4.99492 1.7768 0. 1
</event>
<event>
 4 80 1 -1 -1 -1
 11 -1 0 0 0 0 0 0 5 5 0 0. 9.
 -11 -1 0 0 0 0 0 0 -1.19971 1.19971 0 0. 9.
 15 1 1 2 0 0 0.673692 -1.42485 2.65613 3.56326 1.7768 0. 1
 -15 1 1 2 0 0 -0.673692 1.42485 1.14416 2.63645 1.7768 0. -1
</event>
<event>
 4 80 1 -1 -1 -1
 11 -1 0 0 0 0 0 0 5 5 0 0. 9.
 -11 -1 0 0 0 0 0 0 -5 5 0 0. 9.
 15 1 1 2 0 0 2.7301 -3.64308 -1.0568 5 1.7768 0. -1
 -15 1 1 2 0 0 -2.7301 3.64308 1.0568 5 1.7768 0. 1
</event>
<event>
 4 80 1 -1 -1 -1
 11 -1 0 0 0 0 0 0 5 5 0 0. 9.
 -11 -1 0 0 0 0 0 0 -5 5 0 0. 9.
 15 1 1 2 0 0 -1.7074 3.00489 -3.14606 5 1.7768 0. 1
 -15 1 1 2 0 0 1.7074 -3.00489 3.14606 5 1.7768 0. -1
</event>
<event>
 4 80 1 -1 -1 -1
 11 -1 0 0 0 0 0 0 4.94675 4.94675 0 0. 9.
 -11 -1 0 0 0 0 0 0 -2.91283 2.91283 0 0. 9.
 15 1 1 2 0 0 2.37156 2.12258 2.11341 4.21353 1.7768 0. -1
 -15 1 1 2 0 0 -2.37156 -2.12258 -0.0794863 3.64605 1.7768 0. 1
</event>
<event>
 4 80 1 -1 -1 -1
 11 -1 0 0 0 0 0 0 5 5 0 0. 9.
 -11 -1 0 0 0 0 0 0 -5 5 0 0. 9.
 15 1 1 2 0 0 3.33062 -3.13083 0.973238 5 1.7768 0. -1
 -15 1 1 2 0 0 -3.33062 3.13083 -0.973238 5 1.7768 0. 1
</event>
<event>
 4 80 1 -1 -1 -1
 11 -1 0 0 0 0 0 0 5 5 0 0. 9.
 -11 -1 0 0 0 0 0 0 -5 5 0 0. 9.
 15 1 1 2 0 0 2.00751 4.19613 -0.452416 5 1.7768 0. -1
 -15 1 1 2 0 0 -2.00751 -4.19613 0.452416 5 1.7768 0. 1
</event>
<event>
 4 80 1 -1 -1 -1
 11 -1 0 0 0 0 0 0 4.99999 4.99999 0 0. 9.
 -11 -1 0 0 0 0 0 0 -5 5 0 0. 9.
 15 1 1 2 0 0 -3.12516 -1.71478 -3.02244 5 1.7768 0. 1
 -15 1 1 2 0 0 3.12516 1.71478 3.02243 5 1.7768 0. -1
</event>
<event>
 4 80 1 -1 -1 -1
 11 -1 0 0 0 0 0 0 5 5 0 0. 9.
 -11 -1 0 0 0 0 0 0 -4.99936 4.99936 0 0. 9.
 15 1 1 2 0 0 -2.43009 -0.0510106 3.9917 4.99994 1.7768 0. -1
 -15 1 1 2 0 0 2.43009 0.0510106 -3.99106 4.99942 1.7768 0. 1
</event>
<event>
 4 80 1 -1 -1 -1
 11 -1 0 0 0 0 0 0 5 5 0 0. 9.
 -11 -1 0 0 0 0 0 0 -4.97578 4.97578 0 0. 9.
 15 1 1 2 0 0 -1.99079 2.05997 -3.6641 4.97897 1.7768 0. 1
 -15 1 1 2 0 0 1.99079 -2.05997 3.68832 4.99682 1.7768 0. -1
</event>
<event>
 4 80 1 -1 -1 -1
 11 -1 0 0 0 0 0 0 5 5 0 0. 9.
 -11 -1 0 0 0 0 0 0 -5 5 0 0. 9.
 15 1 1 2 0 0 -0.726188 -2.81084 3.66253 5 1.7768 0. 1
 -15 1 1 2 0 0 0.726188 2.81084 -3.66253 5 1.7768 0. -1
</event>
<event>
 4 80 1 -1 -1 -1
 11 -1 0 0 0 0 0 0 5 5 0 0. 9.
 -11 -1 0 0 0 0 0 0 -4.87144 4.87144 0 0. 9.
 15 1 1 2 0 0 -3.28837 -3.19086 -0.387954 4.92983 1.7768 0. 1
 -15 1 1 2 0 0 3.28837 3.19086 0.516518 4.94161 1.7768 0. -1
</event>
<event>
 4 80 1 -1 -1 -1
 11 -1 0 0 0 0 0 0 5 5 0 0. 9.
 -11 -1 0 0 0 0 0 0 -1.9052 1.9052 0 0. 9.
 15 1 1 2 0 0 -1.06095 -1.08097 -0.710518 2.44063 1.7768 0. 1
 -15 1 1 2 0 0 1.06095 1.08097 3.80532 4.46456 1.7768 0. -1
</event>
<event>
 4 80 1 -1 -1 -1
 11 -1 0 0 0 0 0 0 5 5 0 0. 9.
 -11 -1 0 0 0 0 0 0 -4.99729 4.99729 0 0. 9.
 15 1 1 2 0 0 1.2857 0.660656 4.44424 4.99985 1.7768 0. -1
 -15 1 1 2 0 0 -1.2857 -0.660656 -4.44153 4.99744 1.7768 0. 1
</event>
<event>
 4 80 1 -1 -1 -1
 11 -1 0 0 0 0 0 0 5 5 0 0. 9.
 -11 -1 0 0 0 0 0 0 -5 5 0 0. 9.
 15 1 1 2 0 0 2.92008 -0.0798156 -3.64816 5 1.7768 0. -1
 -15 1 1 2 0 0 -2.92008 0.0798156 3.64816 5 1.7768 0. 1
</event>
<event>
 4 80 1 -1 -1 -1
 11 -1 0 0 0 0 0 0 5 5 0 0. 9.
 -11 -1 0 0 0 0 0 0 -5 5 0 0. 9.
 15 1 1 2 0 0 -4.19972 1.92118 -0.716736 5 1.7768 0. 1
 -15 1 1 2 0 0 4.19972 -1.92118 0.716736 5 1.7768 0. -1
</event>
<event>
 4 80 1 -1 -1 -1
 11 -1 0 0 0 0 0 0 5 5 0 0. 9.
 -11 -1 0 0 0 0 0 0 -4.99999 4.99999 0 0. 9.
 15 1 1 2 0 0 0.817448 -4.56847 0.550504 5 1.7768 0. -1
 -15 1 1 2 0 0 -0.817448 4.56847 -0.550494 4.99999 1.7768 0. 1
</event>
<event>
 4 80 1 -1 -1 -1
 11 -1 0 0 0 0 0 0 4.74134 4.74134 0 0. 9.
 -11 -1 0 0 0 0 0 0 -5 5 0 0. 9.
 15 1 1 2 0 0 4.11893 -0.954169 -1.76481 4.91409 1.7768 0. 1
 -15 1 1 2 0 0 -4.11893 0.954169 1.50614 4.82724 1.7768 0. -1
</event>
<event>
 4 80 1 -1 -1 -1
 11 -1 0 0 0 0 0 0 5 5 0 0. 9.
 -11 -1 0 0 0 0 0 0 -5 5 0 0. 9.
 15 1 1 2 0 0 -1.11434 -2.15203 3.99616 5 1.7768 0. 1
 -15 1 1 2 0 0 1.11434 2.15203 -3.99616 5 1.7768 0. -1
</event>
<event>
 4 80 1 -1 -1 -1
 11 -1 0 0 0 0 0 0 3.39277 3.39277 0 0. 9.
 -11 -1 0 0 0 0 0 0 -5 5 0 0. 9.
 15 1 1 2 0 0 2.6378 -0.211534 -3.46113 4.7053 1.7768 0. -1
 -15 1 1 2 0 0 -2.6378 0.211534 1.85389 3.68746 1.7768 0. 1
</event>
<event>
 4 80 1 -1 -1 -1
 11 -1 0 0 0 0 0 0 4.55166 4.55166 0 0. 9.
 -11 -1 0 0 0 0 0 0 -4.99999 4.99999 0 0. 9.
 15 1 1 2 0 0 -3.0611 -1.86213 -2.82754 4.89802 1.7768 0. 1
 -15 1 1 2 0 0 3.0611 1.86213 2.3792 4.65363 1.7768 0. -1
</event>
<event>
 4 80 1 -1 -1 -1
 11 -1 0 0 0 0 0 0 4.78879 4.78879 0 0. 9.
 -11 -1 0 0 0 0 0 0 -4.99828 4.99828 0 0. 9.
 15 1 1 2 0 0 0.707241 -2.80296 -3.62992 4.96899 1.7768 0. -1
 -15 1 1 2 0 0 -0.707241 2.80296 3.42043 4.81808 1.7768 0. 1
</event>
<event>
 4 80 1 -1 -1 -1
 11 -1 0 0 0 0 0 0 5 5 0 0. 9.
 -11 -1 0 0 0 0 0 0 -5 5 0 0. 9.
 15 1 1 2 0 0 -1.13204 -1.70144 -4.20308 5 1.7768 0. 1
 -15 1 1 2 0 0 1.13204 1.70144 4.20308 5 1.7768 0. -1
</event>
<event>
 4 80 1 -1 -1 -1
 11 -1 0 0 0 0 0 0 3.25843 3.25843 0 0. 9.
 -11 -1 0 0 0 0 0 0 -5 5 0 0. 9.
 15 1 1 2 0 0 -2.97952 -1.19989 -2.58784 4.49132 1.7768 0. 1
 -15 1 1 2 0 0 2.97952 1.19989 0.846276 3.76712 1.7768 0. -1
</event>
<event>
 4 80 1 -1 -1 -1
 11 -1 0 0 0 0 0 0 5 5 0 0. 9.
 -11 -1 0 0 0 0 0 0 -4.99987 4.99987 0 0. 9.
 15 1 1 2 0 0 0.118085 3.73338 2.8089 4.99997 1.7768 0. -1
 -15 1 1 2 0 0 -0.118085 -3.73338 -2.80876 4.9999 1.7768 0. 1
</event>
<event>
 4 80 1 -1 -1 -1
 11 -1 0 0 0 0 0 0 4.98729 4.98729 0 0. 9.
 -11 -1 0 0 0 0 0 0 -4.99999 4.99999 0 0. 9.
 15 1 1 2 0 0 -2.39407 3.97839 0.46218 4.99304 1.7768 0. -1
 -15 1 1 2 0 0 2.39407 -3.97839 -0.474882 4.99424 1.7768 0. 1
</event>
<event>
 4 80 1 -1 -1 -1
 11 -1 0 0 0 0 0 0 5 5 0 0. 9.
 -11 -1 0 0 0 0 0 0 -4.99457 4.99457 0 0. 9.
 15 1 1 2 0 0 3.22078 1.89355 -2.80017 4.99576 1.7768 0. -1
 -15 1 1 2 0 0 -3.22078 -1.89355 2.80561 4.99881 1.7768 0. 1
</event>
<event>
 4 80 1 -1 -1 -1
 11 -1 0 0 0 0 0 0 4.7502 4.7502 0 0. 9.
 -11 -1 0 0 0 0 0 0 -4.99987 4.99987 0 0. 9.
 15 1 1 2 0 0 -3.84562 1.41725 -2.07361 4.92494 1.7768 0. 1
 -15 1 1 2 0 0 3.84562 -1.41725 1.82394 4.82513 1.7768 0. -1
</event>
<event>
 4 80 1 -1 -1 -1
 11 -1 0 0 0 0 0 0 3.66722 3.66722 0 0. 9.
 -11 -1 0 0 0 0 0 0 -4.99971 4.99971 0 0. 9.
 15 1 1 2 0 0 1.26187 -3.59292 0.165783 4.20554 1.7768 0. 1
 -15 1 1 2 0 0 -1.26187 3.59292 -1.49827 4.46138 1.7768 0. -1
</event>
<event>
 4 80 1 -1 -1 -1
 11 -1 0 0 0 0 0 0 5 5 0 0. 9.
 -11 -1 0 0 0 0 0 0 -5 5 0 0. 9.
 15 1 1 2 0 0 3.69097 -1.20699 2.60042 5 1.7768 0. 1
 -15 1 1 2 0 0 -3.69097 1.20699 -2.60042 5 1.7768 0. -1
</event>
<event>
 4 80 1 -1 -1 -1
 11 -1 0 0 0 0 0 0 4.99887 4.99887 0 0. 9.
 -11 -1 0 0 0 0 0 0 -5 5 0 0. 9.
 15 1 1 2 0 0 1.08472 -0.738957 -4.48542 4.99994 1.7768 0. 1
 -15 1 1 2 0 0 -1.08472 0.738957 4.48429 4.99893 1.7768 0. -1
</event>
<event>
 4 80 1 -1 -1 -1
 11 -1 0 0 0 0 0 0 5 5 0 0. 9.
 -11 -1 0 0 0 0 0 0 -4.83842 4.83842 0 0. 9.
 15 1 1 2 0 0 2.5774 -3.43549 -1.52839 4.89278 1.7768 0. -1
 -15 1 1 2 0 0 -2.5774 3.43549 1.68997 4.94564 1.7768 0. 1
</event>
<event>
 4 80 1 -1 -1 -1
 11 -1 0 0 0 0 0 0 5 5 0 0. 9.
 -11 -1 0 0 0 0 0 0 -5 5 0 0. 9.
 15 1 1 2 0 0 -2.93989 3.62162 -0.28839 5 1.7768 0. 1
 -15 1 1 2 0 0 2.93989 -3.62162 0.28839 5 1.7768 0. -1
</event>
<event>
 4 80 1 -1 -1 -1
 11 -1 0 0 0 0 0 0 4.99017 4.99017 0 0. 9.
 -11 -1 0 0 0 0 0 0 -4.99629 4.99629 0 0. 9.
 15 1 1 2 0 0 -3.89956 -0.956247 -2.3808 4.99469 1.7768 0. -1
 -15 1 1 2 0 0 3.89956 0.956247 2.37467 4.99177 1.7768 0. 1
</event>
<event>
 4 80 1 -1 -1 -1
 11 -1 0 0 0 0 0 0 4.89962 4.89962 0 0. 9.
 -11 -1 0 0 0 0 0 0 -5 5 0 0. 9.
 15 1 1 2 0 0 2.28692 -1.55563 -3.75043 4.98733 1.7768 0. 1
 -15 1 1 2 0 0 -2.28692 1.55563 3.65005 4.91229 1.7768 0. -1
</event>
<event>
 4 80 1 -1 -1 -1
 11 -1 0 0 0 0 0 0 5 5 0 0. 9.
 -11 -1 0 0 0 0 0 0 -5 5 0 0. 9.
 15 1 1 2 0 0 4.22631 1.19682 -1.5963 5 1.7768 0. -1
 -15 1 1 2 0 0 -4.22631 -1.19682 1.5963 5 1.7768 0. 1
</event>
<event>
 4 80 1 -1 -1 -1
 11 -1 0 0 0 0 0 0 5 5 0 0. 9.
 -11 -1 0 0 0 0 0 0 -4.73677 4.73677 0 0. 9.
 15 1 1 2 0 0 0.60064 0.786475 4.55441 4.98795 1.7768 0. -1
 -15 1 1 2 0 0 -0.60064 -0.786475 -4.29117 4.74881 1.7768 0. 1
</event>
<event>
 4 80 1 -1 -1 -1
 11 -1 0 0 0 0 0 0 4.80665 4.80665 0 0. 9.
 -11 -1 0 0 0 0 0 0 -5 5 0 0. 9.
 15 1 1 2 0 0 -3.86398 -0.193965 -2.5277 4.95126 1.7768 0. 1
 -15 1 1 2 0 0 3.86398 0.193965 2.33435 4.85539 1.7768 0. -1
</event>
<event>
 4 80 1 -1 -1 -1
 11 -1 0 0 0 0 0 0 4.99972 4.99972 0 0. 9.
 -11 -1 0 0 0 0 0 0 -5 5 0 0. 9.
 15 1 1 2 0 0 2.45049 1.46242 -3.70113 4.99996 1.7768 0. -1
 -15 1 1 2 0 0 -2.45049 -1.46242 3.70085 4.99976 1.7768 0. 1
</event>
<event>
 4 80 1 -1 -1 -1
 11 -1 0 0 0 0 0 0 1.51906 1.51906 0 0. 9.
 -11 -1 0 0 0 0 0 0 -4.99998 4.99998 0 0. 9.
 15 1 1 2 0 0 -1.53191 1.38426 -2.23472 3.52344 1.7768 0. 1
 -15 1 1 2 0 0 1.53191 -1.38426 -1.2462 2.9956 1.7768 0. -1
</event>
<event>
 4 80 1 -1 -1 -1
 11 -1 0 0 0 0 0 0 5 5 0 0. 9.
 -11 -1 0 0 0 0 0 0 -5 5 0 0. 9.
 15 1 1 2 0 0 1.84862 4.0808 1.33115 5 1.7768 0. 1
 -15 1 1 2 0 0 -1.84862 -4.0808 -1.33115 5 1.7768 0. -1
</event>
<event>
 4 80 1 -1 -1 -1
 11 -1 0 0 0 0 0 0 5 5 0 0. 9.
 -11 -1 0 0 0 0 0 0 -4.99888 4.99888 0 0. 9.
 15 1 1 2 0 0 -3.94978 1.96143 -1.54499 4.99927 1.7768 0. -1
 -15 1 1 2 0 0 3.94978 -1.96143 1.54611 4.99961 1.7768 0. 1
</event>
<event>
 4 80 1 -1 -1 -1
 11 -1 0 0 0 0 0 0 3.50428 3.50428 0 0. 9.
 -11 -1 0 0 0 0 0 0 -4.99999 4.99999 0 0. 9.
 15 1 1 2 0 0 -0.757645 -2.55847 1.98619 3.77127 1.7768 0. 1
 -15 1 1 2 0 0 0.757645 2.55847 -3.4819 4.73299 1.7768 0. -1
</event>
<event>
 4 80 1 -1 -1 -1
 11 -1 0 0 0 0 0 0 5 5 0 0. 9.
 -11 -1 0 0 0 0 0 0 -5 5 0 0. 9.
 15 1 1 2 0 0 -3.61181 2.35199 -1.807 5 1.7768 0. 1
 -15 1 1 2 0 0 3.61181 -2.35199 1.807 5 1.7768 0. -1
</event>
<event>
 4 80 1 -1 -1 -1
 11 -1 0 0 0 0 0 0 5 5 0 0. 9.
 -11 -1 0 0 0 0 0 0 -5 5 0 0. 9.
 15 1 1 2 0 0 -4.56764 -0.811317 -0.56627 5 1.7768 0. -1
 -15 1 1 2 0 0 4.56764 0.811317 0.56627 5 1.7768 0. 1
</event>
<event>
 4 80 1 -1 -1 -1
 11 -1 0 0 0 0 0 0 5 5 0 0. 9.
 -11 -1 0 0 0 0 0 0 -5 5 0 0. 9.
 15 1 1 2 0 0 1.89773 -1.84041 -3.85406 5 1.7768 0. 1
 -15 1 1 2 0 0 -1.89773 1.84041 3.85406 5 1.7768 0. -1
</event>
<event>
 4 80 1 -1 -1 -1
 11 -1 0 0 0 0 0 0 5 5 0 0. 9.
 -11 -1 0 0 0 0 0 0 -4.61169 4.61169 0 0. 9.
 15 1 1 2 0 0 -2.34115 -1.57971 -3.26181 4.66622 1.7768 0. 1
 -15 1 1 2 0 0 2.34115 1.57971 3.65012 4.94547 1.7768 0. -1
</event>
<event>
 4 80 1 -1 -1 -1
 11 -1 0 0 0 0 0 0 5 5 0 0. 9.
 -11 -1 0 0 0 0 0 0 -5 5 0 0. 9.
 15 1 1 2 0 0 -1.90684 -2.80689 3.21366 5 1.7768 0. -1
 -15 1 1 2 0 0 1.90684 2.80689 -3.21366 5 1.7768 0. 1
</event>
<event>
 4 80 1 -1 -1 -1
 11 -1 0 0 0 0 0 0 3.57161 3.57161 0 0. 9.
 -11 -1 0 0 0 0 0 0 -4.99738 4.99738 0 0. 9.
 15 1 1 2 0 0 -3.49723 -0.110059 -2.29968 4.54852 1.7768 0. -1
 -15 1 1 2 0 0 3.49723 0.110059 0.873912 4.02047 1.7768 0. 1
</event>
<event>
 4 80 1 -1 -1 -1
 11 -1 0 0 0 0 0 0 5 5 0 0. 9.
 -11 -1 0 0 0 0 0 0 -5 5 0 0. 9.
 15 1 1 2 0 0 3.3532 -3.24325 -0.28227 5 1.7768 0. -1
 -15 1 1 2 0 0 -3.3532 3.24325 0.282272 5 1.7768 0. 1
</event>
<event>
 4 80 1 -1 -1 -1
 11 -1 0 0 0 0 0 0 5 5 0 0. 9.
 -11 -1 0 0 0 0 0 0 -5 5 0 0. 9.
 15 1 1 2 0 0 2.61251 -0.900675 -3.76907 5 1.7768 0. 1
 -15 1 1 2 0 0 -2.61251 0.900675 3.76907 5 1.7768 0. -1
</event>
<event>
 4 80 1 -1 -1 -1
 11 -1 0 0 0 0 0 0 4.97461 4.97461 0 0. 9.
 -11 -1 0 0 0 0 0 0 -5 5 0 0. 9.
 15 1 1 2 0 0 -1.95686 -1.78339 -3.84748 4.99707 1.7768 0. 1
 -15 1 1 2 0 0 1.95686 1.78339 3.82209 4.97754 1.7768 0. -1
</event>
<event>
 4 80 1 -1 -1 -1
 11 -1 0 0 0 0 0 0 5 5 0 0. 9.
 -11 -1 0 0 0 0 0 0 -5 5 0 0. 9.
 15 1 1 2 0 0 -3.76902 -1.43922 -2.35912 5 1.7768 0. 1
 -15 1 1 2 0 0 3.76902 1.43922 2.35912 5 1.7768 0. -1
</event>
<event>
 4 80 1 -1 -1 -1
 11 -1 0 0 0 0 0 0 4.99999 4.99999 0 0. 9.
 -11 -1 0 0 0 0 0 0 -5 5 0 0. 9.
 15 1 1 2 0 0 -1.18381 -2.70278 -3.62434 5 1.7768 0. -1
 -15 1 1 2 0 0 1.18381 2.70278 3.62433 4.99999 1.7768 0. 1
</event>
<event>
 4 80 1 -1 -1 -1
 11 -1 0 0 0 0 0 0 5 5 0 0. 9.
 -11 -1 0 0 0 0 0 0 -5 5 0 0. 9.
 15 1 1 2 0 0 -1.60484 4.3893 0.0277487 5 1.7768 0. -1
 -15 1 1 2 0 0 1.60484 -4.3893 -0.0277535 5 1.7768 0. 1
</event>
<event>
 4 80 1 -1 -1 -1
 11 -1 0 0 0 0 0 0 5 5 0 0. 9.
 -11 -1 0 0 0 0 0 0 -2.31201 2.31201 0 0. 9.
 15 1 1 2 0 0 -2.83522 -0.235288 0.746727 3.43644 1.7768 0. 1
 -15 1 1 2 0 0 2.83522 0.235288 1.94126 3.87557 1.7768 0. -1
</event>
<event>
 4 80 1 -1 -1 -1
 11 -1 0 0 0 0 0 0 5 5 0 0. 9.
 -11 -1 0 0 0 0 0 0 -1.08482 1.08482 0 0. 9.
 15 1 1 2 0 0 -1.20839 0.503247 2.92896 3.66742 1.7768 0. -1
 -15 1 1 2 0 0 1.20839 -0.503247 0.986222 2.4174 1.7768 0. 1
</event>
<event>
 4 80 1 -1 -1 -1
 11 -1 0 0 0 0 0 0 4.99745 4.99745 0 0. 9.
 -11 -1 0 0 0 0 0 0 -5 5 0 0. 9.
 15 1 1 2 0 0 -4.06312 2.28368 -0.325913 4.99881 1.7768 0. -1
 -15 1 1 2 0 0 4.06312 -2.28368 0.323359 4.99864 1.7768 0. 1
</event>
<event>
 4 80 1 -1 -1 -1
 11 -1 0 0 0 0 0 0 5 5 0 0. 9.
 -11 -1 0 0 0 0 0 0 -4.29283 4.29283 0 0. 9.
 15 1 1 2 0 0 -4.05121 0.856132 -0.727127 4.56418 1.7768 0. -1
 -15 1 1 2 0 0 4.05121 -0.856132 1.43429 4.72866 1.7768 0. 1
</event>
<event>
 4 80 1 -1 -1 -1
 11 -1 0 0 0 0 0 0 4.99143 4.99143 0 0. 9.
 -11 -1 0 0 0 0 0 0 -4.99941 4.99941 0 0. 9.
 15 1 1 2 0 0 2.39089 -3.24279 -2.3629 4.9973 1.7768 0. 1
 -15 1 1 2 0 0 -2.39089 3.24279 2.35492 4.99353 1.7768 0. -1
</event>
<event>
 4 80 1 -1 -1 -1
 11 -1 0 0 0 0 0 0 4.99963 4.99963 0 0. 9.
 -11 -1 0 0 0 0 0 0 -1.26312 1.26312 0 0. 9.
 15 1 1 2 0 0 -1.63633 -0.490475 2.47775 3.49502 1.7768 0. -1
 -15 1 1 2 0 0 1.63633 0.490475 1.25876 2.76773 1.7768 0. 1
</event>
<event>
 4 80 1 -1 -1 -1
 11 -1 0 0 0 0 0 0 4.70014 4.70014 0 0. 9.
 -11 -1 0 0 0 0 0 0 -5 5 0 0. 9.
 15 1 1 2 0 0 -1.64285 0.368349 -4.33623 4.97948 1.7768 0. 1
 -15 1 1 2 0 0 1.64285 -0.368349 4.03636 4.72066 1.7768 0. -1
</event>
<event>
 4 80 1 -1 -1 -1
 11 -1 0 0 0 0 0 0 5 5 0 0. 9.
 -11 -1 0 0 0 0 0 0 -4.99893 4.99893 0 0. 9.
 15 1 1 2 0 0 0.107624 -1.77131 4.32347 4.99993 1.7768 0. 1
 -15 1 1 2 0 0 -0.107624 1.77131 -4.3224 4.999 1.7768 0. -1
</event>
<event>
 4 80 1 -1 -1 -1
 11 -1 0 0 0 0 0 0 4.98937 4.98937 0 0. 9.
 -11 -1 0 0 0 0 0 0 -5 5 0 0. 9.
 15 1 1 2 0 0 -1.1765 -4.30206 1.37209 4.99322 1.7768 0. 1
 -15 1 1 2 0 0 1.1765 4.30206 -1.38272 4.99615 1.7768 0. -1
</event>
<event>
 4 80 1 -1 -1 -1
 11 -1 0 0 0 0 0 0 4.99999 4.99999 0 0. 9.
 -11 -1 0 0 0 0 0 0 -4.91444 4.91444 0 0. 9.
 15 1 1 2 0 0 -1.87017 1.63931 -3.85987 4.92354 1.7768 0. -1
 -15 1 1 2 0 0 1.87017 -1.63931 3.94542 4.99089 1.7768 0. 1
</event>
<event>
 4 80 1 -1 -1 -1
 11 -1 0 0 0 0 0 0 5 5 0 0. 9.
 -11 -1 0 0 0 0 0 0 -5 5 0 0. 9.
 15 1 1 2 0 0 2.17464 -3.03299 -2.81322 5 1.7768 0. 1
 -15 1 1 2 0 0 -2.17464 3.03299 2.81322 5 1.7768 0. -1
</event>
<event>
 4 80 1 -1 -1 -1
 11 -1 0 0 0 0 0 0 5 5 0 0. 9.
 -11 -1 0 0 0 0 0 0 -4.99999 4.99999 0 0. 9.
 15 1 1 2 0 0 0.613911 -3.7244 2.75576 5 1.7768 0. -1
 -15 1 1 2 0 0 -0.613911 3.7244 -2.75575 4.99999 1.7768 0. 1
</event>
<event>
 4 80 1 -1 -1 -1
 11 -1 0 0 0 0 0 0 5 5 0 0. 9.
 -11 -1 0 0 0 0 0 0 -2.91727 2.91727 0 0. 9.
 15 1 1 2 0 0 -0.551208 -2.97231 -0.527212 3.546 1.7768 0. -1
 -15 1 1 2 0 0 0.551208 2.97231 2.60994 4.37127 1.7768 0. 1
</event>
<event>
 4 80 1 -1 -1 -1
 11 -1 0 0 0 0 0 0 5 5 0 0. 9.
 -11 -1 0 0 0 0 0 0 -5 5 0 0. 9.
 15 1 1 2 0 0 -3.66946 2.54099 1.3859 5 1.7768 0. -1
 -15 1 1 2 0 0 3.66946 -2.54099 -1.3859 5 1.7768 0. 1
</event>
<event>
 4 80 1 -1 -1 -1
 11 -1 0 0 0 0 0 0 4.99985 4.99985 0 0. 9.
 -11 -1 0 0 0 0 0 0 -5 5 0 0. 9.
 15 1 1 2 0 0 2.94253 -0.782352 -3.54563 4.99998 1.7768 0. 1
 -15 1 1 2 0 0 -2.94253 0.782352 3.54548 4.99987 1.7768 0. -1
</event>
<event>
 4 80 1 -1 -1 -1
 11 -1 0 0 0 0 0 0 4.99989 4.99989 0 0. 9.
 -11 -1 0 0 0 0 0 0 -4.99998 4.99998 0 0. 9.
 15 1 1 2 0 0 -0.167938 2.3437 -4.03991 4.99997 1.7768 0. 1
 -15 1 1 2 0 0 0.167938 -2.3437 4.03981 4.99989 1.7768 0. -1
</event>
<event>
 4 80 1 -1 -1 -1
 11 -1 0 0 0 0 0 0 1.78956 1.78956 0 0. 9.
 -11 -1 0 0 0 0 0 0 -4.9999 4.9999 0 0. 9.
 15 1 1 2 0 0 1.0889 -1.36919 0.269797 2.50817 1.7768 0. -1
 -15 1 1 2 0 0 -1.0889 1.36919 -3.48013 4.28129 1.7768 0. 1
</event>
<event>
 4 80 1 -1 -1 -1
 11 -1 0 0 0 0 0 0 5 5 0 0. 9.
 -11 -1 0 0 0 0 0 0 -5 5 0 0. 9.
 15 1 1 2 0 0 -0.888685 -0.141939 4.58611 5 1.7768 0. -1
 -15 1 1 2 0 0 0.888685 0.141939 -4.58611 5 1.7768 0. 1
</event>
<event>
 4 80 1 -1 -1 -1
 11 -1 0 0 0 0 0 0 5 5 0 0. 9.
 -11 -1 0 0 0 0 0 0 -0.881732 0.881732 0 0. 9.
 15 1 1 2 0 0 -0.817435 -0.0289528 3.12756 3.68895 1.7768 0. 1
 -15 1 1 2 0 0 0.817435 0.0289528 0.990712 2.19278 1.7768 0. -1
</event>
<event>
 4 80 1 -1 -1 -1
 11 -1 0 0 0 0 0 0 4.94832 4.94832 0 0. 9.
 -11 -1 0 0 0 0 0 0 -4.99998 4.99998 0 0. 9.
 15 1 1 2 0 0 -4.3463 0.571336 -1.56437 4.98214 1.7768 0. 1
 -15 1 1 2 0 0 4.3463 -0.571336 1.51271 4.96616 1.7768 0. -1
</event>
<event>
 4 80 1 -1 -1 -1
 11 -1 0 0 0 0 0 0 2.40749 2.40749 0 0. 9.
 -11 -1 0 0 0 0 0 0 -5 5 0 0. 9.
 15 1 1 2 0 0 -2.17097 -0.994649 -3.19908 4.36971 1.7768 0. 1
 -15 1 1 2 0 0 2.17097 0.994649 0.606572 3.03778 1.7768 0. -1
</event>
<event>
 4 80 1 -1 -1 -1
 11 -1 0 0 0 0 0 0 5 5 0 0. 9.
 -11 -1 0 0 0 0 0 0 -4.85646 4.85646 0 0. 9.
 15 1 1 2 0 0 2.23989 1.33141 -3.71477 4.87309 1.7768 0. -1
 -15 1 1 2 0 0 -2.23989 -1.33141 3.85831 4.98337 1.7768 0. 1
</event>
<event>
 4 80 1 -1 -1 -1
 11 -1 0 0 0 0 0 0 5 5 0 0. 9.
 -11 -1 0 0 0 0 0 0 -5 5 0 0. 9.
 15 1 1 2 0 0 -3.12458 -2.38431 2.5287 5 1.7768 0. -1
 -15 1 1 2 0 0 3.12458 2.38431 -2.52871 5 1.7768 0. 1
</event>
<event>
 4 80 1 -1 -1 -1
 11 -1 0 0 0 0 0 0 4.99999 4.99999 0 0. 9.
 -11 -1 0 0 0 0 0 0 -5 5 0 0. 9.
 15 1 1 2 0 0 3.54816 -0.419436 -3.01279 5 1.7768 0. 1
 -15 1 1 2 0 0 -3.54816 0.419436 3.01278 4.99999 1.7768 0. -1
</event>
<event>
 4 80 1 -1 -1 -1
 11 -1 0 0 0 0 0 0 4.99728 4.99728 0 0. 9.
 -11 -1 0 0 0 0 0 0 -5 5 0 0. 9.
 15 1 1 2 0 0 1.20892 3.44224 -2.91994 4.99943 1.7768 0. -1
 -15 1 1 2 0 0 -1.20892 -3.44224 2.91722 4.99784 1.7768 0. 1
</event>
<event>
 4 80 1 -1 -1 -1
 11 -1 0 0 0 0 0 0 4.11596 4.11596 0 0. 9.
 -11 -1 0 0 0 0 0 0 -5 5 0 0. 9.
 15 1 1 2 0 0 -1.37918 1.96258 -3.87407 4.89081 1.7768 0. -1
 -15 1 1 2 0 0 1.37918 -1.96258 2.99004 4.22515 1.7768 0. 1
</event>
<event>
 4 80 1 -1 -1 -1
 11 -1 0 0 0 0 0 0 5 5 0 0. 9.
 -11 -1 0 0 0 0 0 0 -5 5 0 0. 9.
 15 1 1 2 0 0 -0.291156 -2.2754 4.07186 5 1.7768 0. -1
 -15 1 1 2 0 0 0.291156 2.2754 -4.07186 5 1.7768 0. 1
</event>
<event>
 4 80 1 -1 -1 -1
 11 -1 0 0 0 0 0 0 5 5 0 0. 9.
 -11 -1 0 0 0 0 0 0 -4.99483 4.99483 0 0. 9.
 15 1 1 2 0 0 -0.907598 -2.33177 3.94663 4.99946 1.7768 0. 1
 -15 1 1 2 0 0 0.907598 2.33177 -3.94146 4.99538 1.7768 0. -1
</event>
<event>
 4 80 1 -1 -1 -1
 11 -1 0 0 0 0 0 0 4.99992 4.99992 0 0. 9.
 -11 -1 0 0 0 0 0 0 -4.99594 4.99594 0 0. 9.
 15 1 1 2 0 0 -0.0987153 0.484858 4.64706 4.99978 1.7768 0. -1
 -15 1 1 2 0 0 0.0987153 -0.484858 -4.64309 4.99608 1.7768 0. 1
</event>
<event>
 4 80 1 -1 -1 -1
 11 -1 0 0 0 0 0 0 5 5 0 0. 9.
 -11 -1 0 0 0 0 0 0 -5 5 0 0. 9.
 15 1 1 2 0 0 -0.727981 -4.61115 0.222667 5 1.7768 0. -1
 -15 1 1 2 0 0 0.727981 4.61115 -0.222666 5 1.7768 0. 1
</event>
<event>
 4 80 1 -1 -1 -1
 11 -1 0 0 0 0 0 0 5 5 0 0. 9.
 -11 -1 0 0 0 0 0 0 -4.99993 4.99993 0 0. 9.
 15 1 1 2 0 0 4.06182 2.12299 0.914611 4.99997 1.7768 0. 1
 -15 1 1 2 0 0 -4.06182 -2.12299 -0.914538 4.99996 1.7768 0. -1
</event>
<event>
 4 80 1 -1 -1 -1
 11 -1 0 0 0 0 0 0 3.9106 3.9106 0 0. 9.
 -11 -1 0 0 0 0 0 0 -5 5 0 0. 9.
 15 1 1 2 0 0 -0.736054 0.295385 -4.54539 4.94442 1.7768 0. -1
 -15 1 1 2 0 0 0.736054 -0.295385 3.45599 3.96618 1.7768 0. 1
</event>
<event>
 4 80 1 -1 -1 -1
 11 -1 0 0 0 0 0 0 4.9726 4.9726 0 0. 9.
 -11 -1 0 0 0 0 0 0 -4.53811 4.53811 0 0. 9.
 15 1 1 2 0 0 -0.363859 -3.51559 2.84995 4.87562 1.7768 0. 1
 -15 1 1 2 0 0 0.363859 3.51559 -2.41546 4.63508 1.7768 0. -1
</event>
<event>
 4 80 1 -1 -1 -1
 11 -1 0 0 0 0 0 0 4.99995 4.99995 0 0. 9.
 -11 -1 0 0 0 0 0 0 -5 5 0 0. 9.
 15 1 1 2 0 0 0.287034 -4.59324 0.813488 4.99997 1.7768 0. 1
 -15 1 1 2 0 0 -0.287034 4.59324 -0.813534 4.99998 1.7768 0. -1
</event>
<event>
 4 80 1 -1 -1 -1
 11 -1 0 0 0 0 0 0 5 5 0 0. 9.
 -11 -1 0 0 0 0 0 0 -1.72317 1.72317 0 0. 9.
 15 1 1 2 0 0 -0.245868 -2.32327 1.65016 3.36731 1.7768 0. -1
 -15 1 1 2 0 0 0.245868 2.32327 1.62667 3.35586 1.7768 0. 1
</event>
<event>
 4 80 1 -1 -1 -1
 11 -1 0 0 0 0 0 0 5 5 0 0. 9.
 -11 -1 0 0 0 0 0 0 -5 5 0 0. 9.
 15 1 1 2 0 0 -2.63701 -3.74228 0.940083 5 1.7768 0. 1
 -15 1 1 2 0 0 2.63701 3.74228 -0.940083 5 1.7768 0. -1
</event>
<event>
 4 80 1 -1 -1 -1
 11 -1 0 0 0 0 0 0 5 5 0 0. 9.
 -11 -1 0 0 0 0 0 0 -4.99936 4.99936 0 0. 9.
 15 1 1 2 0 0 -2.69537 -3.74751 0.728472 4.99973 1.7768 0. 1
 -15 1 1 2 0 0 2.69537 3.74751 -0.727833 4.99963 1.7768 0. -1
</event>
<event>
 4 80 1 -1 -1 -1
 11 -1 0 0 0 0 0 0 5 5 0 0. 9.
 -11 -1 0 0 0 0 0 0 -4.99992 4.99992 0 0. 9.
 15 1 1 2 0 0 2.47449 3.80393 1.1176 4.99997 1.7768 0. -1
 -15 1 1 2 0 0 -2.47449 -3.80393 -1.11752 4.99995 1.7768 0. 1
</event>
<event>
 4 80 1 -1 -1 -1
 11 -1 0 0 0 0 0 0 5 5 0 0. 9.
 -11 -1 0 0 0 0 0 0 -5 5 0 0. 9.
 15 1 1 2 0 0 1.84723 0.962906 -4.18364 5 1.7768 0. -1
 -15 1 1 2 0 0 -1.84723 -0.962906 4.18364 5 1.7768 0. 1
</event>
<event>
 4 80 1 -1 -1 -1
 11 -1 0 0 0 0 0 0 0.868791 0.868791 0 0. 9.
 -11 -1 0 0 0 0 0 0 -5 5 0 0. 9.
 15 1 1 2 0 0 -0.860986 -0.157767 -1.15313 2.29208 1.7768 0. -1
 -15 1 1 2 0 0 0.860986 0.157767 -2.97808 3.57671 1.7768 0. 1
</event>
<event>
 4 80 1 -1 -1 -1
 11 -1 0 0 0 0 0 0 4.9811 4.9811 0 0. 9.
 -11 -1 0 0 0 0 0 0 -5 5 0 0. 9.
 15 1 1 2 0 0 4.52396 -0.750393 -0.857055 4.99215 1.7768 0. -1
 -15 1 1 2 0 0 -4.52396 0.750393 0.838156 4.98894 1.7768 0. 1
</event>
<event>
 4 80 1 -1 -1 -1
 11 -1 0 0 0 0 0 0 4.99999 4.99999 0 0. 9.
 -11 -1 0 0 0 0 0 0 -5 5 0 0. 9.
 15 1 1 2 0 0 -2.89124 -1.1441 -3.48913 5 1.7768 0. -1
 -15 1 1 2 0 0 2.89124 1.1441 3.48913 5 1.7768 0. 1
</event>
<event>
 4 80 1 -1 -1 -1
 11 -1 0 0 0 0 0 0 4.99996 4.99996 0 0. 9.
 -11 -1 0 0 0 0 0 0 -5 5 0 0. 9.
 15 1 1 2 0 0 2.64631 -3.78086 0.73767 4.99998 1.7768 0. -1
 -15 1 1 2 0 0 -2.64631 3.78086 -0.737712 4.99998 1.7768 0. 1
</event>
<event>
 4 80 1 -1 -1 -1
 11 -1 0 0 0 0 0 0 4.74745 4.74745 0 0. 9.
 -11 -1 0 0 0 0 0 0 -4.99753 4.99753 0 0. 9.
 15 1 1 2 0 0 4.31594 0.837707 0.988324 4.84392 1.7768 0. -1
 -15 1 1 2 0 0 -4.31594 -0.837707 -1.2384 4.90106 1.7768 0. 1
</event>
<event>
 4 80 1 -1 -1 -1
 11 -1 0 0 0 0 0 0 4.91677 4.91677 0 0. 9.
 -11 -1 0 0 0 0 0 0 -4.25557 4.25557 0 0. 9.
 15 1 1 2 0 0 2.74853 2.00996 -2.16015 4.40662 1.7768 0. -1
 -15 1 1 2 0 0 -2.74853 -2.00996 2.82135 4.76572 1.7768 0. 1
</event>
<event>
 4 80 1 -1 -1 -1
 11 -1 0 0 0 0 0 0 4.99999 4.99999 0 0. 9.
 -11 -1 0 0 0 0 0 0 -5 5 0 0. 9.
 15 1 1 2 0 0 -0.162713 3.73321 -2.80694 5 1.7768 0. -1
 -15 1 1 2 0 0 0.162713 -3.73321 2.80693 4.99999 1.7768 0. 1
</event>
<event>
 4 80 1 -1 -1 -1
 11 -1 0 0 0 0 0 0 4.98762 4.98762 0 0. 9.
 -11 -1 0 0 0 0 0 0 -5 5 0 0. 9.
 15 1 1 2 0 0 -0.507596 -4.21498 -1.94439 4.99621 1.7768 0. 1
 -15 1 1 2 0 0 0.507596 4.21498 1.93201 4.99141 1.7768 0. -1
</event>
<event>
 4 80 1 -1 -1 -1
 11 -1 0 0 0 0 0 0 3.27644 3.27644 0 0. 9.
 -11 -1 0 0 0 0 0 0 -1.21201 1.21201 0 0. 9.
 15 1 1 2 0 0 0.341035 0.833213 1.09176 2.27161 1.7768 0. -1
 -15 1 1 2 0 0 -0.341035 -0.833213 0.972682 2.21684 1.7768 0. 1
</event>
<event>
 4 80 1 -1 -1 -1
 11 -1 0 0 0 0 0 0 5 5 0 0. 9.
 -11 -1 0 0 0 0 0 0 -5 5 0 0. 9.
 15 1 1 2 0 0 3.66545 -0.801221 2.78654 5 1.7768 0. 1
 -15 1 1 2 0 0 -3.66545 0.801221 -2.78654 5 1.7768 0. -1
</event>
<event>
 4 80 1 -1 -1 -1
 11 -1 0 0 0 0 0 0 4.99927 4.99927 0 0. 9.
 -11 -1 0 0 0 0 0 0 -4.93453 4.93453 0 0. 9.
 15 1 1 2 0 0 3.41941 -3.09193 -0.476493 4.96358 1.7768 0. -1
 -15 1 1 2 0 0 -3.41941 3.09193 0.541235 4.97021 1.7768 0. 1
</event>
<event>
 4 80 1 -1 -1 -1
 11 -1 0 0 0 0 0 0 5 5 0 0. 9.
 -11 -1 0 0 0 0 0 0 -4.99998 4.99998 0 0. 9.
 15 1 1 2 0 0 0.810726 -4.36649 -1.45555 4.99999 1.7768 0. -1
 -15 1 1 2 0 0 -0.810726 4.36649 1.45556 4.99999 1.7768 0. 1
</event>
<event>
 4 80 1 -1 -1 -1
 11 -1 0 0 0 0 0 0 4.99889 4.99889 0 0. 9.
 -11 -1 0 0 0 0 0 0 -5 5 0 0. 9.
 15 1 1 2 0 0 -2.88043 -1.18982 -3.48254 4.99983 1.7768 0. -1
 -15 1 1 2 0 0 2.88043 1.18982 3.48142 4.99906 1.7768 0. 1
</event>
<event>
 4 80 1 -1 -1 -1
 11 -1 0 0 0 0 0 0 5 5 0 0. 9.
 -11 -1 0 0 0 0 0 0 -5 5 0 0. 9.
 15 1 1 2 0 0 -1.05564 -3.98619 -2.19959 5 1.7768 0. 1
 -15 1 1 2 0 0 1.05564 3.98619 2.19959 5 1.7768 0. -1
</event>
<event>
 4 80 1 -1 -1 -1
 11 -1 0 0 0 0 0 0 3.07732 3.07732 0 0. 9.
 -11 -1 0 0 0 0 0 0 -5 5 0 0. 9.
 15 1 1 2 0 0 -1.79126 -2.48941 0.768594 3.62688 1.7768 0. -1
 -15 1 1 2 0 0 1.79126 2.48941 -2.69127 4.45044 1.7768 0. 1
</event>
<event>
 4 80 1 -1 -1 -1
 11 -1 0 0 0 0 0 0 1.50645 1.50645 0 0. 9.
 -11 -1 0 0 0 0 0 0 -3.62924 3.62924 0 0. 9.
 15 1 1 2 0 0 0.0376141 1.39641 -1.71861 2.8395 1.7768 0. -1
 -15 1 1 2 0 0 -0.0376141 -1.39641 -0.404175 2.29619 1.7768 0. 1
</event>
<event>
 4 80 1 -1 -1 -1
 11 -1 0 0 0 0 0 0 5 5 0 0. 9.
 -11 -1 0 0 0 0 0 0 -3.89131 3.89131 0 0. 9.
 15 1 1 2 0 0 1.96902 -1.23848 -2.7713 4.03097 1.7768 0. -1
 -15 1 1 2 0 0 -1.96902 1.23848 3.87999 4.86034 1.7768 0. 1
</event>
<event>
 4 80 1 -1 -1 -1
 11 -1 0 0 0 0 0 0 4.99996 4.99996 0 0. 9.
 -11 -1 0 0 0 0 0 0 -4.99933 4.99933 0 0. 9.
 15 1 1 2 0 0 -0.602859 4.55382 -0.858741 4.99959 1.7768 0. 1
 -15 1 1 2 0 0 0.602859 -4.55382 0.859367 4.9997 1.7768 0. -1
</event>
<event>
 4 80 1 -1 -1 -1
 11 -1 0 0 0 0 0 0 3.91475 3.91475 0 0. 9.
 -11 -1 0 0 0 0 0 0 -5 5 0 0. 9.
 15 1 1 2 0 0 -1.91144 -3.56781 -0.359229 4.43505 1.7768 0. -1
 -15 1 1 2 0 0 1.91144 3.56781 -0.726019 4.4797 1.7768 0. 1
</event>
<event>
 4 80 1 -1 -1 -1
 11 -1 0 0 0 0 0 0 4.99999 4.99999 0 0. 9.
 -11 -1 0 0 0 0 0 0 -4.89548 4.89548 0 0. 9.
 15 1 1 2 0 0 -1.88017 4.16729 0.699038 4.95457 1.7768 0. -1
 -15 1 1 2 0 0 1.88017 -4.16729 -0.594524 4.9409 1.7768 0. 1
</event>
<event>
 4 80 1 -1 -1 -1
 11 -1 0 0 0 0 0 0 5 5 0 0. 9.
 -11 -1 0 0 0 0 0 0 -4.7301 4.7301 0 0. 9.
 15 1 1 2 0 0 2.16228 0.0896939 -3.84267 4.75472 1.7768 0. -1
 -15 1 1 2 0 0 -2.16228 -0.0896939 4.11257 4.97538 1.7768 0. 1
</event>
<event>
 4 80 1 -1 -1 -1
 11 -1 0 0 0 0 0 0 4.99874 4.99874 0 0. 9.
 -11 -1 0 0 0 0 0 0 -4.93381 4.93381 0 0. 9.
 15 1 1 2 0 0 -1.3768 0.610013 -4.35368 4.93761 1.7768 0. -1
 -15 1 1 2 0 0 1.3768 -0.610013 4.4186 4.99495 1.7768 0. 1
</event>
<event>
 4 80 1 -1 -1 -1
 11 -1 0 0 0 0 0 0 4.99825 4.99825 0 0. 9.
 -11 -1 0 0 0 0 0 0 -5 5 0 0. 9.
 15 1 1 2 0 0 -0.329164 3.82196 2.66704 4.99866 1.7768 0. -1
 -15 1 1 2 0 0 0.329164 -3.82196 -2.66879 4.99959 1.7768 0. 1
</event>
<event>
 4 80 1 -1 -1 -1
 11 -1 0 0 0 0 0 0 5 5 0 0. 9.
 -11 -1 0 0 0 0 0 0 -4.99999 4.99999 0 0. 9.
 15 1 1 2 0 0 0.400663 1.48435 -4.41343 4.99999 1.7768 0. -1
 -15 1 1 2 0 0 -0.400663 -1.48435 4.41344 5 1.7768 0. 1
</event>
<event>
 4 80 1 -1 -1 -1
 11 -1 0 0 0 0 0 0 5 5 0 0. 9.
 -11 -1 0 0 0 0 0 0 -5 5 0 0. 9.
 15 1 1 2 0 0 -3.02024 -2.73843 2.28505 5 1.7768 0. 1
 -15 1 1 2 0 0 3.02024 2.73843 -2.28505 5 1.7768 0. -1
</event>
<event>
 4 80 1 -1 -1 -1
 11 -1 0 0 0 0 0 0 5 5 0 0. 9.
 -11 -1 0 0 0 0 0 0 -5 5 0 0. 9.
 15 1 1 2 0 0 1.72471 0.855022 -4.25871 5 1.7768 0. 1
 -15 1 1 2 0 0 -1.72471 -0.855022 4.2587 5 1.7768 0. -1
</event>
<event>
 4 80 1 -1 -1 -1
 11 -1 0 0 0 0 0 0 5 5 0 0. 9.
 -11 -1 0 0 0 0 0 0 -5 5 0 0. 9.
 15 1 1 2 0 0 2.25408 3.78901 1.55073 5 1.7768 0. 1
 -15 1 1 2 0 0 -2.25408 -3.78901 -1.55073 5 1.7768 0. -1
</event>
<event>
 4 80 1 -1 -1 -1
 11 -1 0 0 0 0 0 0 5 5 0 0. 9.
 -11 -1 0 0 0 0 0 0 -5 5 0 0. 9.
 15 1 1 2 0 0 4.02372 2.0222 -1.25006 5 1.7768 0. -1
 -15 1 1 2 0 0 -4.02372 -2.0222 1.25006 5 1.7768 0. 1
</event>
<event>
 4 80 1 -1 -1 -1
 11 -1 0 0 0 0 0 0 2.04128 2.04128 0 0. 9.
 -11 -1 0 0 0 0 0 0 -4.99975 4.99975 0 0. 9.
 15 1 1 2 0 0 -2.61176 -0.447168 -1.65988 3.59642 1.7768 0. -1
 -15 1 1 2 0 0 2.61176 0.447168 -1.29859 3.44461 1.7768 0. 1
</event>
<event>
 4 80 1 -1 -1 -1
 11 -1 0 0 0 0 0 0 4.99986 4.99986 0 0. 9.
 -11 -1 0 0 0 0 0 0 -5 5 0 0. 9.
 15 1 1 2 0 0 -0.114349 1.61644 4.3835 4.99987 1.7768 0. 1
 -15 1 1 2 0 0 0.114349 -1.61644 -4.38363 4.99999 1.7768 0. -1
</event>
<event>
 4 80 1 -1 -1 -1
 11 -1 0 0 0 0 0 0 5 5 0 0. 9.
 -11 -1 0 0 0 0 0 0 -4.20164 4.20164 0 0. 9.
 15 1 1 2 0 0 1.54244 -3.89499 0.949371 4.64856 1.7768 0. -1
 -15 1 1 2 0 0 -1.54244 3.89499 -0.151009 4.55308 1.7768 0. 1
</event>
<event>
 4 80 1 -1 -1 -1
 11 -1 0 0 0 0 0 0 5 5 0 0. 9.
 -11 -1 0 0 0 0 0 0 -4.49889 4.49889 0 0. 9.
 15 1 1 2 0 0 4.32821 0.740903 0.0170298 4.73712 1.7768 0. -1
 -15 1 1 2 0 0 -4.32821 -0.740903 0.484084 4.76176 1.7768 0. 1
</event>
<event>
 4 80 1 -1 -1 -1
 11 -1 0 0 0 0 0 0 5 5 0 0. 9.
 -11 -1 0 0 0 0 0 0 -4.98167 4.98167 0 0. 9.
 15 1 1 2 0 0 -1.65282 -0.224241 4.36446 4.99883 1.7768 0. -1
 -15 1 1 2 0 0 1.65282 0.224241 -4.34613 4.98284 1.7768 0. 1
</event>
<event>
 4 80 1 -1 -1 -1
 11 -1 0 0 0 0 0 0 5 5 0 0. 9.
 -11 -1 0 0 0 0 0 0 -5 5 0 0. 9.
 15 1 1 2 0 0 -4.46665 -0.824908 1.10039 5 1.7768 0. -1
 -15 1 1 2 0 0 4.46665 0.824908 -1.10039 5 1.7768 0. 1
</event>
<event>
 4 80 1 -1 -1 -1
 11 -1 0 0 0 0 0 0 5 5 0 0. 9.
 -11 -1 0 0 0 0 0 0 -5 5 0 0. 9.
 15 1 1 2 0 0 1.19126 -0.875326 -4.43362 5 1.7768 0. 1
 -15 1 1 2 0 0 -1.19126 0.875326 4.43362 5 1.7768 0. -1
</event>
<event>
 4 80 1 -1 -1 -1
 11 -1 0 0 0 0 0 0 4.83298 4.83298 0 0. 9.
 -11 -1 0 0 0 0 0 0 -5 5 0 0. 9.
 15 1 1 2 0 0 -0.586455 -0.666913 -4.58065 4.99288 1.7768 0. 1
 -15 1 1 2 0 0 0.586455 0.666913 4.41364 4.84011 1.7768 0. -1
</event>
<event>
 4 80 1 -1 -1 -1
 11 -1 0 0 0 0 0 0 4.92985 4.92985 0 0. 9.
 -11 -1 0 0 0 0 0 0 -5 5 0 0. 9.
 15 1 1 2 0 0 -1.61463 -1.06152 4.17902 4.93516 1.7768 0. 1
 -15 1 1 2 0 0 1.61463 1.06152 -4.24916 4.9947 1.7768 0. -1
</event>
<event>
 4 80 1 -1 -1 -1
 11 -1 0 0 0 0 0 0 5 5 0 0. 9.
 -11 -1 0 0 0 0 0 0 -5 5 0 0. 9.
 15 1 1 2 0 0 0.294801 3.50918 3.07262 5 1.7768 0. 1
 -15 1 1 2 0 0 -0.294801 -3.50918 -3.07262 5 1.7768 0. -1
</event>
<event>
 4 80 1 -1 -1 -1
 11 -1 0 0 0 0 0 0 4.14578 4.14578 0 0. 9.
 -11 -1 0 0 0 0 0 0 -5 5 0 0. 9.
 15 1 1 2 0 0 1.07922 -1.54999 3.33151 4.22183 1.7768 0. -1
 -15 1 1 2 0 0 -1.07922 1.54999 -4.18573 4.92395 1.7768 0. 1
</event>
<event>
 4 80 1 -1 -1 -1
 11 -1 0 0 0 0 0 0 1.08696 1.08696 0 0. 9.
 -11 -1 0 0 0 0 0 0 -4.98901 4.98901 0 0. 9.
 15 1 1 2 0 0 -1.18864 0.715743 -2.71167 3.52647 1.7768 0. -1
 -15 1 1 2 0 0 1.18864 -0.715743 -1.19039 2.54949 1.7768 0. 1
</event>
<event>
 4 80 1 -1 -1 -1
 11 -1 0 0 0 0 0 0 5 5 0 0. 9.
 -11 -1 0 0 0 0 0 0 -5 5 0 0. 9.
 15 1 1 2 0 0 -2.93718 3.03623 1.99914 5 1.7768 0. -1
 -15 1 1 2 0 0 2.93718 -3.03623 -1.99914 5 1.7768 0. 1
</event>
<event>
 4 80 1 -1 -1 -1
 11 -1 0 0 0 0 0 0 4.99997 4.99997 0 0. 9.
 -11 -1 0 0 0 0 0 0 -5 5 0 0. 9.
 15 1 1 2 0 0 -1.13023 -2.16047 -3.98713 5 1.7768 0. -1
 -15 1 1 2 0 0 1.13023 2.16047 3.9871 4.99997 1.7768 0. 1
</event>
<event>
 4 80 1 -1 -1 -1
 11 -1 0 0 0 0 0 0 5 5 0 0. 9.
 -11 -1 0 0 0 0 0 0 -4.99047 4.99047 0 0. 9.
 15 1 1 2 0 0 -4.53821 -1.07414 -0.208424 4.99503 1.7768 0. -1
 -15 1 1 2 0 0 4.53821 1.07414 0.217958 4.99544 1.7768 0. 1
</event>
<event>
 4 80 1 -1 -1 -1
 11 -1 0 0 0 0 0 0 5 5 0 0. 9.
 -11 -1 0 0 0 0 0 0 -4.9947 4.9947 0 0. 9.
 15 1 1 2 0 0 -0.743944 -1.91545 -4.19179 4.99512 1.7768 0. 1
 -15 1 1 2 0 0 0.743944 1.91545 4.19709 4.99957 1.7768 0. -1
</event>
<event>
 4 80 1 -1 -1 -1
 11 -1 0 0 0 0 0 0 5 5 0 0. 9.
 -11 -1 0 0 0 0 0 0 -4.99982 4.99982 0 0. 9.
 15 1 1 2 0 0 -3.00709 0.633449 3.5211 4.99997 1.7768 0. 1
 -15 1 1 2 0 0 3.00709 -0.633449 -3.52092 4.99984 1.7768 0. -1
</event>
<event>
 4 80 1 -1 -1 -1
 11 -1 0 0 0 0 0 0 5 5 0 0. 9.
 -11 -1 0 0 0 0 0 0 -5 5 0 0. 9.
 15 1 1 2 0 0 -1.75304 -0.68565 -4.27773 5 1.7768 0. -1
 -15 1 1 2 0 0 1.75304 0.68565 4.27773 5 1.7768 0. 1
</event>
<event>
 4 80 1 -1 -1 -1
 11 -1 0 0 0 0 0 0 4.99079 4.99079 0 0. 9.
 -11 -1 0 0 0 0 0 0 -4.969 4.969 0 0. 9.
 15 1 1 2 0 0 2.0299 -1.39515 3.95737 4.98853 1.7768 0. -1
 -15 1 1 2 0 0 -2.0299 1.39515 -3.93558 4.97126 1.7768 0. 1
</event>
<event>
 4 80 1 -1 -1 -1
 11 -1 0 0 0 0 0 0 5 5 0 0. 9.
 -11 -1 0 0 0 0 0 0 -5 5 0 0. 9.
 15 1 1 2 0 0 4.20107 -0.428599 2.00238 5 1.7768 0. -1
 -15 1 1 2 0 0 -4.20107 0.428599 -2.00239 5 1.7768 0. 1
</event>
<event>
 4 80 1 -1 -1 -1
 11 -1 0 0 0 0 0 0 5 5 0 0. 9.
 -11 -1 0 0 0 0 0 0 -4.99684 4.99684 0 0. 9.
 15 1 1 2 0 0 1.25711 -4.36442 1.09609 4.99877 1.7768 0. -1
 -15 1 1 2 0 0 -1.25711 4.36442 -1.09293 4.99808 1.7768 0. 1
</event>
<event>
 4 80 1 -1 -1 -1
 11 -1 0 0 0 0 0 0 4.87246 4.87246 0 0. 9.
 -11 -1 0 0 0 0 0 0 -5 5 0 0. 9.
 15 1 1 2 0 0 0.152131 2.54024 -3.90188 4.98581 1.7768 0. 1
 -15 1 1 2 0 0 -0.152131 -2.54024 3.77434 4.88665 1.7768 0. -1
</event>
<event>
 4 80 1 -1 -1 -1
 11 -1 0 0 0 0 0 0 2.74154 2.74154 0 0. 9.
 -11 -1 0 0 0 0 0 0 -4.6173 4.6173 0 0. 9.
 15 1 1 2 0 0 -2.40332 -1.1493 -2.54129 4.08812 1.7768 0. -1
 -15 1 1 2 0 0 2.40332 1.1493 0.665532 3.27071 1.7768 0. 1
</event>
<event>
 4 80 1 -1 -1 -1
 11 -1 0 0 0 0 0 0 1.7228 1.7228 0 0. 9.
 -11 -1 0 0 0 0 0 0 -5 5 0 0. 9.
 15 1 1 2 0 0 -1.78296 1.05535 -0.403181 2.75917 1.7768 0. -1
 -15 1 1 2 0 0 1.78296 -1.05535 -2.87402 3.96364 1.7768 0. 1
</event>
<event>
 4 80 1 -1 -1 -1
 11 -1 0 0 0 0 0 0 4.67361 4.67361 0 0. 9.
 -11 -1 0 0 0 0 0 0 -5 5 0 0. 9.
 15 1 1 2 0 0 -3.59561 2.41845 -1.36099 4.87722 1.7768 0. -1
 -15 1 1 2 0 0 3.59561 -2.41845 1.0346 4.79639 1.7768 0. 1
</event>
<event>
 4 80 1 -1 -1 -1
 11 -1 0 0 0 0 0 0 5 5 0 0. 9.
 -11 -1 0 0 0 0 0 0 -4.26447 4.26447 0 0. 9.
 15 1 1 2 0 0 0.93776 1.69165 -3.44209 4.32976 1.7768 0. 1
 -15 1 1 2 0 0 -0.93776 -1.69165 4.17762 4.93471 1.7768 0. -1
</event>
<event>
 4 80 1 -1 -1 -1
 11 -1 0 0 0 0 0 0 4.99999 4.99999 0 0. 9.
 -11 -1 0 0 0 0 0 0 -4.72667 4.72667 0 0. 9.
 15 1 1 2 0 0 0.326041 -4.47326 -0.462912 4.84648 1.7768 0. -1
 -15 1 1 2 0 0 -0.326041 4.47326 0.736232 4.88018 1.7768 0. 1
</event>
<event>
 4 80 1 -1 -1 -1
 11 -1 0 0 0 0 0 0 1.95663 1.95663 0 0. 9.
 -11 -1 0 0 0 0 0 0 -5 5 0 0. 9.
 15 1 1 2 0 0 -0.85584 -0.0770912 1.17654 2.29791 1.7768 0. 1
 -15 1 1 2 0 0 0.85584 0.0770912 -4.2199 4.65873 1.7768 0. -1
</event>
<event>
 4 80 1 -1 -1 -1
 11 -1 0 0 0 0 0 0 5 5 0 0. 9.
 -11 -1 0 0 0 0 0 0 -5 5 0 0. 9.
 15 1 1 2 0 0 -2.53158 -3.8728 -0.659401 5 1.7768 0. 1
 -15 1 1 2 0 0 2.53158 3.8728 0.659401 5 1.7768 0. -1
</event>
<event>
 4 80 1 -1 -1 -1
 11 -1 0 0 0 0 0 0 5 5 0 0. 9.
 -11 -1 0 0 0 0 0 0 -5 5 0 0. 9.
 15 1 1 2 0 0 3.75508 2.5906 -1.01511 5 1.7768 0. -1
 -15 1 1 2 0 0 -3.75508 -2.5906 1.01511 5 1.7768 0. 1
</event>
<event>
 4 80 1 -1 -1 -1
 11 -1 0 0 0 0 0 0 4.93378 4.93378 0 0. 9.
 -11 -1 0 0 0 0 0 0 -5 5 0 0. 9.
 15 1 1 2 0 0 1.58942 1.31073 -4.18855 4.99459 1.7768 0. 1
 -15 1 1 2 0 0 -1.58942 -1.31073 4.12232 4.93919 1.7768 0. -1
</event>
<event>
 4 80 1 -1 -1 -1
 11 -1 0 0 0 0 0 0 5 5 0 0. 9.
 -11 -1 0 0 0 0 0 0 -4.92863 4.92863 0 0. 9.
 15 1 1 2 0 0 -3.9412 -2.40437 -0.378337 4.96134 1.7768 0. 1
 -15 1 1 2 0 0 3.9412 2.40437 0.449708 4.96729 1.7768 0. -1
</event>
<event>
 4 80 1 -1 -1 -1
 11 -1 0 0 0 0 0 0 4.36682 4.36682 0 0. 9.
 -11 -1 0 0 0 0 0 0 -4.91353 4.91353 0 0. 9.
 15 1 1 2 0 0 -2.71275 -2.40212 2.00428 4.506 1.7768 0. 1
 -15 1 1 2 0 0 2.71275 2.40212 -2.55098 4.77435 1.7768 0. -1
</event>
<event>
 4 80 1 -1 -1 -1
 11 -1 0 0 0 0 0 0 5 5 0 0. 9.
 -11 -1 0 0 0 0 0 0 -5 5 0 0. 9.
 15 1 1 2 0 0 3.05461 1.26906 3.30169 5 1.7768 0. -1
 -15 1 1 2 0 0 -3.05461 -1.26906 -3.30169 5 1.7768 0. 1
</event>
<event>
 4 80 1 -1 -1 -1
 11 -1 0 0 0 0 0 0 5 5 0 0. 9.
 -11 -1 0 0 0 0 0 0 -4.99986 4.99986 0 0. 9.
 15 1 1 2 0 0 -4.51764 0.915782 0.770702 4.99994 1.7768 0. -1
 -15 1 1 2 0 0 4.51764 -0.915782 -0.770566 4.99992 1.7768 0. 1
</event>
<event>
 4 80 1 -1 -1 -1
 11 -1 0 0 0 0 0 0 5 5 0 0. 9.
 -11 -1 0 0 0 0 0 0 -1.77357 1.77357 0 0. 9.
 15 1 1 2 0 0 -1.8703 -1.00254 2.86271 3.98195 1.7768 0. 1
 -15 1 1 2 0 0 1.8703 1.00254 0.363719 2.79162 1.7768 0. -1
</event>
<event>
 4 80 1 -1 -1 -1
 11 -1 0 0 0 0 0 0 4.99995 4.99995 0 0. 9.
 -11 -1 0 0 0 0 0 0 -0.973668 0.973668 0 0. 9.
 15 1 1 2 0 0 -1.24952 -0.279402 1.65193 2.74335 1.7768 0. -1
 -15 1 1 2 0 0 1.24952 0.279402 2.37435 3.23027 1.7768 0. 1
</event>
<event>
 4 80 1 -1 -1 -1
 11 -1 0 0 0 0 0 0 5 5 0 0. 9.
 -11 -1 0 0 0 0 0 0 -1.79152 1.79152 0 0. 9.
 15 1 1 2 0 0 -1.15192 -1.68091 0.147923 2.70776 1.7768 0. 1
 -15 1 1 2 0 0 1.15192 1.68091 3.06055 4.08376 1.7768 0. -1
</event>
<event>
 4 80 1 -1 -1 -1
 11 -1 0 0 0 0 0 0 4.99999 4.99999 0 0. 9.
 -11 -1 0 0 0 0 0 0 -5 5 0 0. 9.
 15 1 1 2 0 0 -4.15024 1.37505 -1.65137 5 1.7768 0. 1
 -15 1 1 2 0 0 4.15024 -1.37505 1.65136 5 1.7768 0. -1
</event>
<event>
 4 80 1 -1 -1 -1
 11 -1 0 0 0 0 0 0 5 5 0 0. 9.
 -11 -1 0 0 0 0 0 0 -5 5 0 0. 9.
 15 1 1 2 0 0 2.9755 0.776877 3.51926 5 1.7768 0. 1
 -15 1 1 2 0 0 -2.9755 -0.776877 -3.51926 5 1.7768 0. -1
</event>
<event>
 4 80 1 -1 -1 -1
 11 -1 0 0 0 0 0 0 4.74735 4.74735 0 0. 9.
 -11 -1 0 0 0 0 0 0 -5 5 0 0. 9.
 15 1 1 2 0 0 -3.73239 -0.397768 -2.67475 4.93973 1.7768 0. 1
 -15 1 1 2 0 0 3.73239 0.397768 2.42209 4.80762 1.7768 0. -1
</event>
<event>
 4 80 1 -1 -1 -1
 11 -1 0 0 0 0 0 0 5 5 0 0. 9.
 -11 -1 0 0 0 0 0 0 -4.7092 4.7092 0 0. 9.
 15 1 1 2 0 0 2.92881 0.332024 -3.27668 4.75211 1.7768 0. -1
 -15 1 1 2 0 0 -2.92881 -0.332024 3.56748 4.9571 1.7768 0. 1
</event>
<event>
 4 80 1 -1 -1 -1
 11 -1 0 0 0 0 0 0 5 5 0 0. 9.
 -11 -1 0 0 0 0 0 0 -4.75027 4.75027 0 0. 9.
 15 1 1 2 0 0 -3.22879 0.0146872 3.31469 4.95683 1.7768 0. -1
 -15 1 1 2 0 0 3.22879 -0.0146872 -3.06496 4.79343 1.7768 0. 1
</event>
<event>
 4 80 1 -1 -1 -1
 11 -1 0 0 0 0 0 0 5 5 0 0. 9.
 -11 -1 0 0 0 0 0 0 -1.68946 1.68946 0 0. 9.
 15 1 1 2 0 0 -1.22765 -0.601356 -0.473199 2.29138 1.7768 0. 1
 -15 1 1 2 0 0 1.22765 0.601356 3.78374 4.39808 1.7768 0. -1
</event>
<event>
 4 80 1 -1 -1 -1
 11 -1 0 0 0 0 0 0 5 5 0 0. 9.
 -11 -1 0 0 0 0 0 0 -5 5 0 0. 9.
 15 1 1 2 0 0 -0.570709 -1.72582 -4.30559 5 1.7768 0. 1
 -15 1 1 2 0 0 0.570709 1.72582 4.30559 5 1.7768 0. -1
</event>
<event>
 4 80 1 -1 -1 -1
 11 -1 0 0 0 0 0 0 4.99999 4.99999 0 0. 9.
 -11 -1 0 0 0 0 0 0 -4.95103 4.95103 0 0. 9.
 15 1 1 2 0 0 -2.4656 -0.607687 -3.86773 4.95636 1.7768 0. 1
 -15 1 1 2 0 0 2.4656 0.607687 3.91669 4.99466 1.7768 0. -1
</event>
<event>
 4 80 1 -1 -1 -1
 11 -1 0 0 0 0 0 0 4.99867 4.99867 0 0. 9.
 -11 -1 0 0 0 0 0 0 -5 5 0 0. 9.
 15 1 1 2 0 0 -2.66557 -1.21473 -3.64138 4.99982 1.7768 0. 1
 -15 1 1 2 0 0 2.66557 1.21473 3.64005 4.99885 1.7768 0. -1
</event>
<event>
 4 80 1 -1 -1 -1
 11 -1 0 0 0 0 0 0 5 5 0 0. 9.
 -11 -1 0 0 0 0 0 0 -5 5 0 0. 9.
 15 1 1 2 0 0 2.8659 -3.22457 1.79752 5 1.7768 0. 1
 -15 1 1 2 0 0 -2.8659 3.22457 -1.79752 5 1.7768 0. -1
</event>
<event>
 4 80 1 -1 -1 -1
 11 -1 0 0 0 0 0 0 5 5 0 0. 9.
 -11 -1 0 0 0 0 0 0 -5 5 0 0. 9.
 15 1 1 2 0 0 -2.12699 -3.2765 -2.56569 5 1.7768 0. -1
 -15 1 1 2 0 0 2.12699 3.2765 2.56569 5 1.7768 0. 1
</event>
<event>
 4 80 1 -1 -1 -1
 11 -1 0 0 0 0 0 0 5 5 0 0. 9.
 -11 -1 0 0 0 0 0 0 -5 5 0 0. 9.
 15 1 1 2 0 0 4.38149 -0.70008 1.4679 5 1.7768 0. -1
 -15 1 1 2 0 0 -4.38149 0.70008 -1.4679 5 1.7768 0. 1
</event>
<event>
 4 80 1 -1 -1 -1
 11 -1 0 0 0 0 0 0 5 5 0 0. 9.
 -11 -1 0 0 0 0 0 0 -1.83455 1.83455 0 0. 9.
 15 1 1 2 0 0 1.0376 2.1398 2.25938 3.73067 1.7768 0. 1
 -15 1 1 2 0 0 -1.0376 -2.1398 0.906074 3.10388 1.7768 0. -1
</event>
<event>
 4 80 1 -1 -1 -1
 11 -1 0 0 0 0 0 0 5 5 0 0. 9.
 -11 -1 0 0 0 0 0 0 -4.99999 4.99999 0 0. 9.
 15 1 1 2 0 0 1.25395 1.90045 -4.08143 4.99999 1.7768 0. 1
 -15 1 1 2 0 0 -1.25395 -1.90045 4.08144 5 1.7768 0. -1
</event>
<event>
 4 80 1 -1 -1 -1
 11 -1 0 0 0 0 0 0 5 5 0 0. 9.
 -11 -1 0 0 0 0 0 0 -5 5 0 0. 9.
 15 1 1 2 0 0 2.66528 -3.61259 1.29915 5 1.7768 0. 1
 -15 1 1 2 0 0 -2.66528 3.61259 -1.29915 5 1.7768 0. -1
</event>
<event>
 4 80 1 -1 -1 -1
 11 -1 0 0 0 0 0 0 5 5 0 0. 9.
 -11 -1 0 0 0 0 0 0 -4.99978 4.99978 0 0. 9.
 15 1 1 2 0 0 -4.51152 -1.17119 0.340177 4.9999 1.7768 0. -1
 -15 1 1 2 0 0 4.51152 1.17119 -0.339957 4.99988 1.7768 0. 1
</event>
<event>
 4 80 1 -1 -1 -1
 11 -1 0 0 0 0 0 0 2.64528 2.64528 0 0. 9.
 -11 -1 0 0 0 0 0 0 -5 5 0 0. 9.
 15 1 1 2 0 0 -2.58495 -1.64426 -2.04607 4.0902 1.7768 0. 1
 -15 1 1 2 0 0 2.58495 1.64426 -0.308651 3.55508 1.7768 0. -1
</event>
<event>
 4 80 1 -1 -1 -1
 11 -1 0 0 0 0 0 0 4.94191 4.94191 0 0. 9.
 -11 -1 0 0 0 0 0 0 -5 5 0 0. 9.
 15 1 1 2 0 0 1.19006 -4.21263 1.51673 4.96192 1.7768 0. 1
 -15 1 1 2 0 0 -1.19006 4.21263 -1.57482 4.97999 1.7768 0. -1
</event>
<event>
 4 80 1 -1 -1 -1
 11 -1 0 0 0 0 0 0 5 5 0 0. 9.
 -11 -1 0 0 0 0 0 0 -5 5 0 0. 9.
 15 1 1 2 0 0 -0.454953 0.64855 -4.60593 5 1.7768 0. -1
 -15 1 1 2 0 0 0.454953 -0.64855 4.60594 5 1.7768 0. 1
</event>
<event>
 4 80 1 -1 -1 -1
 11 -1 0 0 0 0 0 0 4.99881 4.99881 0 0. 9.
 -11 -1 0 0 0 0 0 0 -5 5 0 0. 9.
 15 1 1 2 0 0 1.46853 4.42464 -0.320356 4.99944 1.7768 0. -1
 -15 1 1 2 0 0 -1.46853 -4.42464 0.319162 4.99936 1.7768 0. 1
</event>
<event>
 4 80 1 -1 -1 -1
 11 -1 0 0 0 0 0 0 4.57752 4.57752 0 0. 9.
 -11 -1 0 0 0 0 0 0 -5 5 0 0. 9.
 15 1 1 2 0 0 -2.18159 -1.39005 3.40314 4.62932 1.7768 0. -1
 -15 1 1 2 0 0 2.18159 1.39005 -3.82562 4.9482 1.7768 0. 1
</event>
<event>
 4 80 1 -1 -1 -1
 11 -1 0 0 0 0 0 0 5 5 0 0. 9.
 -11 -1 0 0 0 0 0 0 -4.92468 4.92468 0 0. 9.
 15 1 1 2 0 0 -3.32751 3.16748 0.638009 4.96689 1.7768 0. 1
 -15 1 1 2 0 0 3.32751 -3.16748 -0.562685 4.95778 1.7768 0. -1
</event>
<event>
 4 80 1 -1 -1 -1
 11 -1 0 0 0 0 0 0 2.92487 2.92487 0 0. 9.
 -11 -1 0 0 0 0 0 0 -4.99998 4.99998 0 0. 9.
 15 1 1 2 0 0 -0.596034 -1.0053 2.2555 3.10015 1.7768 0. 1
 -15 1 1 2 0 0 0.596034 1.0053 -4.33061 4.82471 1.7768 0. -1
</event>
<event>
 4 80 1 -1 -1 -1
 11 -1 0 0 0 0 0 0 5 5 0 0. 9.
 -11 -1 0 0 0 0 0 0 -3.23989 3.23989 0 0. 9.
 15 1 1 2 0 0 3.56589 -0.437584 1.25575 4.2002 1.7768 0. 1
 -15 1 1 2 0 0 -3.56589 0.437584 0.50436 4.03969 1.7768 0. -1
</event>
<event>
 4 80 1 -1 -1 -1
 11 -1 0 0 0 0 0 0 5 5 0 0. 9.
 -11 -1 0 0 0 0 0 0 -4.82073 4.82073 0 0. 9.
 15 1 1 2 0 0 0.931448 2.7237 3.64829 4.97533 1.7768 0. -1
 -15 1 1 2 0 0 -0.931448 -2.7237 -3.46902 4.8454 1.7768 0. 1
</event>
<event>
 4 80 1 -1 -1 -1
 11 -1 0 0 0 0 0 0 3.44564 3.44564 0 0. 9.
 -11 -1 0 0 0 0 0 0 -5 5 0 0. 9.
 15 1 1 2 0 0 1.06156 -2.66725 1.67918 3.77075 1.7768 0. 1
 -15 1 1 2 0 0 -1.06156 2.66725 -3.23354 4.6749 1.7768 0. -1
</event>
<event>
 4 80 1 -1 -1 -1
 11 -1 0 0 0 0 0 0 4.97332 4.97332 0 0. 9.
 -11 -1 0 0 0 0 0 0 -5 5 0 0. 9.
 15 1 1 2 0 0 -4.03742 2.23644 -0.650874 4.98836 1.7768 0. 1
 -15 1 1 2 0 0 4.03742 -2.23644 0.624191 4.98495 1.7768 0. -1
</event>
<event>
 4 80 1 -1 -1 -1
 11 -1 0 0 0 0 0 0 5 5 0 0. 9.
 -11 -1 0 0 0 0 0 0 -5 5 0 0. 9.
 15 1 1 2 0 0 0.280692 -4.40483 1.53654 5 1.7768 0. -1
 -15 1 1 2 0 0 -0.280692 4.40483 -1.53654 5 1.7768 0. 1
</event>
<event>
 4 80 1 -1 -1 -1
 11 -1 0 0 0 0 0 0 5 5 0 0. 9.
 -11 -1 0 0 0 0 0 0 -5 5 0 0. 9.
 15 1 1 2 0 0 -0.397762 -0.641632 -4.6122 5 1.7768 0. 1
 -15 1 1 2 0 0 0.397762 0.641632 4.6122 5 1.7768 0. -1
</event>
<event>
 4 80 1 -1 -1 -1
 11 -1 0 0 0 0 0 0 5 5 0 0. 9.
 -11 -1 0 0 0 0 0 0 -5 5 0 0. 9.
 15 1 1 2 0 0 -0.293795 4.61696 0.663074 5 1.7768 0. -1
 -15 1 1 2 0 0 0.293795 -4.61696 -0.663074 5 1.7768 0. 1
</event>
<event>
 4 80 1 -1 -1 -1
 11 -1 0 0 0 0 0 0 5 5 0 0. 9.
 -11 -1 0 0 0 0 0 0 -4.9861 4.9861 0 0. 9.
 15 1 1 2 0 0 4.02243 2.3647 -0.0251126 4.99301 1.7768 0. -1
 -15 1 1 2 0 0 -4.02243 -2.3647 0.0390114 4.9931 1.7768 0. 1
</event>
<event>
 4 80 1 -1 -1 -1
 11 -1 0 0 0 0 0 0 5 5 0 0. 9.
 -11 -1 0 0 0 0 0 0 -2.18095 2.18095 0 0. 9.
 15 1 1 2 0 0 2.18439 1.07136 -0.0603818 3.01343 1.7768 0. 1
 -15 1 1 2 0 0 -2.18439 -1.07136 2.87943 4.16752 1.7768 0. -1
</event>
<event>
 4 80 1 -1 -1 -1
 11 -1 0 0 0 0 0 0 4.99745 4.99745 0 0. 9.
 -11 -1 0 0 0 0 0 0 -4.99434 4.99434 0 0. 9.
 15 1 1 2 0 0 -4.1499 2.08276 0.493178 4.99605 1.7768 0. -1
 -15 1 1 2 0 0 4.1499 -2.08276 -0.490073 4.99574 1.7768 0. 1
</event>
<event>
 4 80 1 -1 -1 -1
 11 -1 0 0 0 0 0 0 5 5 0 0. 9.
 -11 -1 0 0 0 0 0 0 -5 5 0 0. 9.
 15 1 1 2 0 0 -1.05719 -1.80656 -4.17863 5 1.7768 0. 1
 -15 1 1 2 0 0 1.05719 1.80656 4.17863 5 1.7768 0. -1
</event>
<event>
 4 80 1 -1 -1 -1
 11 -1 0 0 0 0 0 0 5 5 0 0. 9.
 -11 -1 0 0 0 0 0 0 -5 5 0 0. 9.
 15 1 1 2 0 0 -2.68183 -2.1054 -3.19646 5 1.7768 0. 1
 -15 1 1 2 0 0 2.68183 2.1054 3.19646 5 1.7768 0. -1
</event>
<event>
 4 80 1 -1 -1 -1
 11 -1 0 0 0 0 0 0 4.99998 4.99998 0 0. 9.
 -11 -1 0 0 0 0 0 0 -5 5 0 0. 9.
 15 1 1 2 0 0 -1.56397 1.01666 -4.28517 5 1.7768 0. -1
 -15 1 1 2 0 0 1.56397 -1.01666 4.28515 4.99998 1.7768 0. 1
</event>
<event>
 4 80 1 -1 -1 -1
 11 -1 0 0 0 0 0 0 5 5 0 0. 9.
 -11 -1 0 0 0 0 0 0 -4.99949 4.99949 0 0. 9.
 15 1 1 2 0 0 0.494072 -0.217081 -4.64178 4.99951 1.7768 0. -1
 -15 1 1 2 0 0 -0.494072 0.217081 4.64229 4.99998 1.7768 0. 1
</event>
<event>
 4 80 1 -1 -1 -1
 11 -1 0 0 0 0 0 0 0.898672 0.898672 0 0. 9.
 -11 -1 0 0 0 0 0 0 -4.64853 4.64853 0 0. 9.
 15 1 1 2 0 0 -0.900821 0.277556 -2.36658 3.10595 1.7768 0. -1
 -15 1 1 2 0 0 0.900821 -0.277556 -1.38328 2.44125 1.7768 0. 1
</event>
<event>
 4 80 1 -1 -1 -1
 11 -1 0 0 0 0 0 0 4.86556 4.86556 0 0. 9.
 -11 -1 0 0 0 0 0 0 -5 5 0 0. 9.
 15 1 1 2 0 0 -2.88752 -2.21366 -2.88386 4.97116 1.7768 0. -1
 -15 1 1 2 0 0 2.88752 2.21366 2.74942 4.89439 1.7768 0. 1
</event>
<event>
 4 80 1 -1 -1 -1
 11 -1 0 0 0 0 0 0 4.99927 4.99927 0 0. 9.
 -11 -1 0 0 0 0 0 0 -4.32628 4.32628 0 0. 9.
 15 1 1 2 0 0 0.291124 -4.16025 -0.70452 4.58765 1.7768 0. -1
 -15 1 1 2 0 0 -0.291124 4.16025 1.37751 4.7379 1.7768 0. 1
</event>
<event>
 4 80 1 -1 -1 -1
 11 -1 0 0 0 0 0 0 5 5 0 0. 9.
 -11 -1 0 0 0 0 0 0 -4.93085 4.93085 0 0. 9.
 15 1 1 2 0 0 3.56955 -2.62392 -1.33291 4.9559 1.7768 0. -1
 -15 1 1 2 0 0 -3.56955 2.62392 1.40206 4.97495 1.7768 0. 1
</event>
<event>
 4 80 1 -1 -1 -1
 11 -1 0 0 0 0 0 0 5 5 0 0. 9.
 -11 -1 0 0 0 0 0 0 -4.99347 4.99347 0 0. 9.
 15 1 1 2 0 0 0.653085 0.203711 4.62296 4.99975 1.7768 0. -1
 -15 1 1 2 0 0 -0.653085 -0.203711 -4.61643 4.99371 1.7768 0. 1
</event>
<event>
 4 80 1 -1 -1 -1
 11 -1 0 0 0 0 0 0 5 5 0 0. 9.
 -11 -1 0 0 0 0 0 0 -5 5 0 0. 9.
 15 1 1 2 0 0 3.25293 -3.33165 0.400992 5 1.7768 0. -1
 -15 1 1 2 0 0 -3.25293 3.33165 -0.400992 5 1.7768 0. 1
</event>
<event>
 4 80 1 -1 -1 -1
 11 -1 0 0 0 0 0 0 5 5 0 0. 9.
 -11 -1 0 0 0 0 0 0 -3.92485 3.92485 0 0. 9.
 15 1 1 2 0 0 -0.283357 -1.10403 4.46067 4.93503 1.7768 0. 1
 -15 1 1 2 0 0 0.283357 1.10403 -3.38552 3.98982 1.7768 0. -1
</event>
<event>
 4 80 1 -1 -1 -1
 11 -1 0 0 0 0 0 0 4.99646 4.99646 0 0. 9.
 -11 -1 0 0 0 0 0 0 -5 5 0 0. 9.
 15 1 1 2 0 0 -2.70358 1.13214 3.63602 4.99694 1.7768 0. 1
 -15 1 1 2 0 0 2.70358 -1.13214 -3.63956 4.99952 1.7768 0. -1
</event>
<event>
 4 80 1 -1 -1 -1
 11 -1 0 0 0 0 0 0 5 5 0 0. 9.
 -11 -1 0 0 0 0 0 0 -0.653942 0.653942 0 0. 9.
 15 1 1 2 0 0 0.145246 0.181625 2.5492 3.11612 1.7768 0. -1
 -15 1 1 2 0 0 -0.145246 -0.181625 1.79686 2.53782 1.7768 0. 1
</event>
<event>
 4 80 1 -1 -1 -1
 11 -1 0 0 0 0 0 0 0.821515 0.821515 0 0. 9.
 -11 -1 0 0 0 0 0 0 -4.67742 4.67742 0 0. 9.
 15 1 1 2 0 0 0.416277 0.378943 -1.07714 2.15287 1.7768 0. 1
 -15 1 1 2 0 0 -0.416277 -0.378943 -2.77876 3.34606 1.7768 0. -1
</event>
<event>
 4 80 1 -1 -1 -1
 11 -1 0 0 0 0 0 0 4.3376 4.3376 0 0. 9.
 -11 -1 0 0 0 0 0 0 -4.9375 4.9375 0 0. 9.
 15 1 1 2 0 0 -0.125386 -3.15549 2.58469 4.45098 1.7768 0. 1
 -15 1 1 2 0 0 0.125386 3.15549 -3.18459 4.82413 1.7768 0. -1
</event>
<event>
 4 80 1 -1 -1 -1
 11 -1 0 0 0 0 0 0 4.99772 4.99772 0 0. 9.
 -11 -1 0 0 0 0 0 0 -5 5 0 0. 9.
 15 1 1 2 0 0 1.4701 3.69418 2.45297 4.9983 1.7768 0. 1
 -15 1 1 2 0 0 -1.4701 -3.69418 -2.45525 4.99942 1.7768 0. -1
</event>
<event>
 4 80 1 -1 -1 -1
 11 -1 0 0 0 0 0 0 5 5 0 0. 9.
 -11 -1 0 0 0 0 0 0 -2.75864 2.75864 0 0. 9.
 15 1 1 2 0 0 2.84205 -1.58056 0.864705 3.80537 1.7768 0. 1
 -15 1 1 2 0 0 -2.84205 1.58056 1.37665 3.95327 1.7768 0. -1
</event>
<event>
 4 80 1 -1 -1 -1
 11 -1 0 0 0 0 0 0 5 5 0 0. 9.
 -11 -1 0 0 0 0 0 0 -5 5 0 0. 9.
 15 1 1 2 0 0 -3.68343 -2.8669 0.235637 5 1.7768 0. 1
 -15 1 1 2 0 0 3.68343 2.8669 -0.235637 5 1.7768 0. -1
</event>
<event>
 4 80 1 -1 -1 -1
 11 -1 0 0 0 0 0 0 5 5 0 0. 9.
 -11 -1 0 0 0 0 0 0 -5 5 0 0. 9.
 15 1 1 2 0 0 1.20795 2.40482 3.82099 5 1.7768 0. 1
 -15 1 1 2 0 0 -1.20795 -2.40482 -3.82099 5 1.7768 0. -1
</event>
<event>
 4 80 1 -1 -1 -1
 11 -1 0 0 0 0 0 0 4.99999 4.99999 0 0. 9.
 -11 -1 0 0 0 0 0 0 -4.99998 4.99998 0 0. 9.
 15 1 1 2 0 0 1.37208 -2.32224 3.81665 4.99999 1.7768 0. -1
 -15 1 1 2 0 0 -1.37208 2.32224 -3.81663 4.99998 1.7768 0. 1
</event>
<event>
 4 80 1 -1 -1 -1
 11 -1 0 0 0 0 0 0 5 5 0 0. 9.
 -11 -1 0 0 0 0 0 0 -5 5 0 0. 9.
 15 1 1 2 0 0 4.07797 -0.417791 2.24452 5 1.7768 0. -1
 -15 1 1 2 0 0 -4.07797 0.417791 -2.24452 5 1.7768 0. 1
</event>
<event>
 4 80 1 -1 -1 -1
 11 -1 0 0 0 0 0 0 5 5 0 0. 9.
 -11 -1 0 0 0 0 0 0 -4.59588 4.59588 0 0. 9.
 15 1 1 2 0 0 1.16706 2.47938 3.71407 4.94584 1.7768 0. -1
 -15 1 1 2 0 0 -1.16706 -2.47938 -3.30994 4.65003 1.7768 0. 1
</event>
<event>
 4 80 1 -1 -1 -1
 11 -1 0 0 0 0 0 0 3.14313 3.14313 0 0. 9.
 -11 -1 0 0 0 0 0 0 -2.2153 2.2153 0 0. 9.
 15 1 1 2 0 0 -0.279453 0.585529 2.33178 3.00264 1.7768 0. -1
 -15 1 1 2 0 0 0.279453 -0.585529 -1.40395 2.35579 1.7768 0. 1
</event>
<event>
 4 80 1 -1 -1 -1
 11 -1 0 0 0 0 0 0 5 5 0 0. 9.
 -11 -1 0 0 0 0 0 0 -4.995 4.995 0 0. 9.
 15 1 1 2 0 0 -3.98633 -0.724894 2.3265 4.99866 1.7768 0. -1
 -15 1 1 2 0 0 3.98633 0.724894 -2.3215 4.99634 1.7768 0. 1
</event>
<event>
 4 80 1 -1 -1 -1
 11 -1 0 0 0 0 0 0 5 5 0 0. 9.
 -11 -1 0 0 0 0 0 0 -5 5 0 0. 9.
 15 1 1 2 0 0 -4.54108 0.720139 -0.838017 5 1.7768 0. 1
 -15 1 1 2 0 0 4.54108 -0.720139 0.838017 5 1.7768 0. -1
</event>
<event>
 4 80 1 -1 -1 -1
 11 -1 0 0 0 0 0 0 4.97951 4.97951 0 0. 9.
 -11 -1 0 0 0 0 0 0 -4.5281 4.5281 0 0. 9.
 15 1 1 2 0 0 3.9205 -1.77323 1.16233 4.79827 1.7768 0. 1
 -15 1 1 2 0 0 -3.9205 1.77323 -0.710928 4.70933 1.7768 0. -1
</event>
<event>
 4 80 1 -1 -1 -1
 11 -1 0 0 0 0 0 0 5 5 0 0. 9.
 -11 -1 0 0 0 0 0 0 -4.99922 4.99922 0 0. 9.
 15 1 1 2 0 0 3.61438 1.9501 -2.22935 4.99943 1.7768 0. -1
 -15 1 1 2 0 0 -3.61438 -1.9501 2.23013 4.99978 1.7768 0. 1
</event>
<event>
 4 80 1 -1 -1 -1
 11 -1 0 0 0 0 0 0 4.99764 4.99764 0 0. 9.
 -11 -1 0 0 0 0 0 0 -4.97202 4.97202 0 0. 9.
 15 1 1 2 0 0 -2.83325 0.260564 3.70002 4.99431 1.7768 0. -1
 -15 1 1 2 0 0 2.83325 -0.260564 -3.6744 4.97536 1.7768 0. 1
</event>
<event>
 4 80 1 -1 -1 -1
 11 -1 0 0 0 0 0 0 4.99988 4.99988 0 0. 9.
 -11 -1 0 0 0 0 0 0 -5 5 0 0. 9.
 15 1 1 2 0 0 1.53697 -2.76091 3.44331 4.9999 1.7768 0. 1
 -15 1 1 2 0 0 -1.53697 2.76091 -3.44343 4.99998 1.7768 0. -1
</event>
<event>
 4 80 1 -1 -1 -1
 11 -1 0 0 0 0 0 0 5 5 0 0. 9.
 -11 -1 0 0 0 0 0 0 -4.99503 4.99503 0 0. 9.
 15 1 1 2 0 0 1.49748 3.15203 3.10727 4.99906 1.7768 0. 1
 -15 1 1 2 0 0 -1.49748 -3.15203 -3.1023 4.99597 1.7768 0. -1
</event>
<event>
 4 80 1 -1 -1 -1
 11 -1 0 0 0 0 0 0 5 5 0 0. 9.
 -11 -1 0 0 0 0 0 0 -5 5 0 0. 9.
 15 1 1 2 0 0 1.70724 -2.97986 3.16987 5 1.7768 0. -1
 -15 1 1 2 0 0 -1.70724 2.97986 -3.16987 5 1.7768 0. 1
</event>
<event>
 4 80 1 -1 -1 -1
 11 -1 0 0 0 0 0 0 5 5 0 0. 9.
 -11 -1 0 0 0 0 0 0 -5 5 0 0. 9.
 15 1 1 2 0 0 -4.40711 1.50659 -0.38706 5 1.7768 0. 1
 -15 1 1 2 0 0 4.40711 -1.50659 0.38706 5 1.7768 0. -1
</event>
<event>
 4 80 1 -1 -1 -1
 11 -1 0 0 0 0 0 0 1.78778 1.78778 0 0. 9.
 -11 -1 0 0 0 0 0 0 -4.99963 4.99963 0 0. 9.
 15 1 1 2 0 0 1.21995 -0.921457 0.5004 2.39698 1.7768 0. 1
 -15 1 1 2 0 0 -1.21995 0.921457 -3.71226 4.39044 1.7768 0. -1
</event>
<event>
 4 80 1 -1 -1 -1
 11 -1 0 0 0 0 0 0 4.86874 4.86874 0 0. 9.
 -11 -1 0 0 0 0 0 0 -4.99434 4.99434 0 0. 9.
 15 1 1 2 0 0 -0.484055 0.21269 -4.63251 4.98973 1.7768 0. -1
 -15 1 1 2 0 0 0.484055 -0.21269 4.50691 4.87335 1.7768 0. 1
</event>
<event>
 4 80 1 -1 -1 -1
 11 -1 0 0 0 0 0 0 5 5 0 0. 9.
 -11 -1 0 0 0 0 0 0 -4.9764 4.9764 0 0. 9.
 15 1 1 2 0 0 3.91887 -2.15464 1.3249 4.9913 1.7768 0. -1
 -15 1 1 2 0 0 -3.91887 2.15464 -1.30129 4.98509 1.7768 0. 1
</event>
<event>
 4 80 1 -1 -1 -1
 11 -1 0 0 0 0 0 0 5 5 0 0. 9.
 -11 -1 0 0 0 0 0 0 -4.99993 4.99993 0 0. 9.
 15 1 1 2 0 0 -1.78365 0.42962 -4.29833 4.99994 1.7768 0. 1
 -15 1 1 2 0 0 1.78365 -0.42962 4.2984 5 1.7768 0. -1
</event>
<event>
 4 80 1 -1 -1 -1
 11 -1 0 0 0 0 0 0 5 5 0 0. 9.
 -11 -1 0 0 0 0 0 0 -4.88192 4.88192 0 0. 9.
 15 1 1 2 0 0 2.65782 1.87791 3.32443 4.97998 1.7768 0. 1
 -15 1 1 2 0 0 -2.65782 -1.87791 -3.20635 4.90194 1.7768 0. -1
</event>
<event>
 4 80 1 -1 -1 -1
 11 -1 0 0 0 0 0 0 4.98429 4.98429 0 0. 9.
 -11 -1 0 0 0 0 0 0 -4.62971 4.62971 0 0. 9.
 15 1 1 2 0 0 1.72355 -1.17505 -3.77086 4.66138 1.7768 0. 1
 -15 1 1 2 0 0 -1.72355 1.17505 4.12545 4.95262 1.7768 0. -1
</event>
<event>
 4 80 1 -1 -1 -1
 11 -1 0 0 0 0 0 0 5 5 0 0. 9.
 -11 -1 0 0 0 0 0 0 -4.99991 4.99991 0 0. 9.
 15 1 1 2 0 0 -4.39851 0.781584 1.37265 4.99997 1.7768 0. -1
 -15 1 1 2 0 0 4.39851 -0.781584 -1.37255 4.99994 1.7768 0. 1
</event>
<event>
 4 80 1 -1 -1 -1
 11 -1 0 0 0 0 0 0 4.99998 4.99998 0 0. 9.
 -11 -1 0 0 0 0 0 0 -4.99981 4.99981 0 0. 9.
 15 1 1 2 0 0 -3.84649 1.00666 -2.45602 4.99986 1.7768 0. -1
 -15 1 1 2 0 0 3.84649 -1.00666 2.45619 4.99994 1.7768 0. 1
</event>
<event>
 4 80 1 -1 -1 -1
 11 -1 0 0 0 0 0 0 4.96564 4.96564 0 0. 9.
 -11 -1 0 0 0 0 0 0 -4.99995 4.99995 0 0. 9.
 15 1 1 2 0 0 4.35635 -0.354557 -1.61925 4.98831 1.7768 0. 1
 -15 1 1 2 0 0 -4.35635 0.354557 1.58494 4.97727 1.7768 0. -1
</event>
<event>
 4 80 1 -1 -1 -1
 11 -1 0 0 0 0 0 0 4.0738 4.0738 0 0. 9.
 -11 -1 0 0 0 0 0 0 -4.99999 4.99999 0 0. 9.
 15 1 1 2 0 0 4.04578 0.847031 -0.106977 4.50055 1.7768 0. -1
 -15 1 1 2 0 0 -4.04578 -0.847031 -0.819214 4.57325 1.7768 0. 1
</event>
<event>
 4 80 1 -1 -1 -1
 11 -1 0 0 0 0 0 0 4.99831 4.99831 0 0. 9.
 -11 -1 0 0 0 0 0 0 -4.98882 4.98882 0 0. 9.
 15 1 1 2 0 0 -4.11238 -1.69245 -1.41014 4.99222 1.7768 0. -1
 -15 1 1 2 0 0 4.11238 1.69245 1.41963 4.99491 1.7768 0. 1
</event>
<event>
 4 80 1 -1 -1 -1
 11 -1 0 0 0 0 0 0 5 5 0 0. 9.
 -11 -1 0 0 0 0 0 0 -5 5 0 0. 9.
 15 1 1 2 0 0 0.139297 4.65302 -0.41506 5 1.7768 0. -1
 -15 1 1 2 0 0 -0.139297 -4.65302 0.41506 5 1.7768 0. 1
</event>
<event>
 4 80 1 -1 -1 -1
 11 -1 0 0 0 0 0 0 5 5 0 0. 9.
 -11 -1 0 0 0 0 0 0 -5 5 0 0. 9.
 15 1 1 2 0 0 -0.466844 -0.414912 4.63165 5 1.7768 0. -1
 -15 1 1 2 0 0 0.466844 0.414912 -4.63165 5 1.7768 0. 1
</event>
<event>
 4 80 1 -1 -1 -1
 11 -1 0 0 0 0 0 0 4.99971 4.99971 0 0. 9.
 -11 -1 0 0 0 0 0 0 -5 5 0 0. 9.
 15 1 1 2 0 0 1.23269 -0.192216 -4.50396 4.99999 1.7768 0. -1
 -15 1 1 2 0 0 -1.23269 0.192216 4.50367 4.99972 1.7768 0. 1
</event>
<event>
 4 80 1 -1 -1 -1
 11 -1 0 0 0 0 0 0 5 5 0 0. 9.
 -11 -1 0 0 0 0 0 0 -4.3937 4.3937 0 0. 9.
 15 1 1 2 0 0 2.5968 -0.527454 3.74386 4.91892 1.7768 0. -1
 -15 1 1 2 0 0 -2.5968 0.527454 -3.13756 4.47477 1.7768 0. 1
</event>
<event>
 4 80 1 -1 -1 -1
 11 -1 0 0 0 0 0 0 5 5 0 0. 9.
 -11 -1 0 0 0 0 0 0 -4.99941 4.99941 0 0. 9.
 15 1 1 2 0 0 -1.92538 4.23199 0.471965 4.99973 1.7768 0. -1
 -15 1 1 2 0 0 1.92538 -4.23199 -0.471371 4.99967 1.7768 0. 1
</event>
<event>
 4 80 1 -1 -1 -1
 11 -1 0 0 0 0 0 0 4.99999 4.99999 0 0. 9.
 -11 -1 0 0 0 0 0 0 -3.5812 3.5812 0 0. 9.
 15 1 1 2 0 0 2.05572 2.23656 3.09167 4.68447 1.7768 0. 1
 -15 1 1 2 0 0 -2.05572 -2.23656 -1.67288 3.89672 1.7768 0. -1
</event>
<event>
 4 80 1 -1 -1 -1
 11 -1 0 0 0 0 0 0 5 5 0 0. 9.
 -11 -1 0 0 0 0 0 0 -5 5 0 0. 9.
 15 1 1 2 0 0 -2.54441 -3.34853 -2.03853 5 1.7768 0. -1
 -15 1 1 2 0 0 2.54441 3.34853 2.03853 5 1.7768 0. 1
</event>
<event>
 4 80 1 -1 -1 -1
 11 -1 0 0 0 0 0 0 5 5 0 0. 9.
 -11 -1 0 0 0 0 0 0 -5 5 0 0. 9.
 15 1 1 2 0 0 -1.24018 -4.43191 -0.813855 5 1.7768 0. -1
 -15 1 1 2 0 0 1.24018 4.43191 0.813855 5 1.7768 0. 1
</event>
<event>
 4 80 1 -1 -1 -1
 11 -1 0 0 0 0 0 0 4.31073 4.31073 0 0. 9.
 -11 -1 0 0 0 0 0 0 -4.99993 4.99993 0 0. 9.
 15 1 1 2 0 0 -3.18752 -1.551 2.07652 4.47611 1.7768 0. 1
 -15 1 1 2 0 0 3.18752 1.551 -2.76572 4.83455 1.7768 0. -1
</event>
<event>
 4 80 1 -1 -1 -1
 11 -1 0 0 0 0 0 0 4.99964 4.99964 0 0. 9.
 -11 -1 0 0 0 0 0 0 -5 5 0 0. 9.
 15 1 1 2 0 0 -3.18581 0.536562 -3.37704 4.99994 1.7768 0. 1
 -15 1 1 2 0 0 3.18581 -0.536562 3.37668 4.9997 1.7768 0. -1
</event>
<event>
 4 80 1 -1 -1 -1
 11 -1 0 0 0 0 0 0 4.99152 4.99152 0 0. 9.
 -11 -1 0 0 0 0 0 0 -5 5 0 0. 9.
 15 1 1 2 0 0 1.23316 -4.3038 1.32109 4.99463 1.7768 0. -1
 -15 1 1 2 0 0 -1.23316 4.3038 -1.32957 4.99688 1.7768 0. 1
</event>
<event>
 4 80 1 -1 -1 -1
 11 -1 0 0 0 0 0 0 4.99999 4.99999 0 0. 9.
 -11 -1 0 0 0 0 0 0 -5 5 0 0. 9.
 15 1 1 2 0 0 0.899527 -3.55216 2.90089 4.99999 1.7768 0. 1
 -15 1 1 2 0 0 -0.899527 3.55216 -2.9009 5 1.7768 0. -1
</event>
<event>
 4 80 1 -1 -1 -1
 11 -1 0 0 0 0 0 0 5 5 0 0. 9.
 -11 -1 0 0 0 0 0 0 -5 5 0 0. 9.
 15 1 1 2 0 0 3.98782 -0.67796 -2.34093 5 1.7768 0. -1
 -15 1 1 2 0 0 -3.98782 0.67796 2.34093 5 1.7768 0. 1
</event>
<event>
 4 80 1 -1 -1 -1
 11 -1 0 0 0 0 0 0 4.89796 4.89796 0 0. 9.
 -11 -1 0 0 0 0 0 0 -5 5 0 0. 9.
 15 1 1 2 0 0 3.8346 2.5262 0.445191 4.94386 1.7768 0. -1
 -15 1 1 2 0 0 -3.8346 -2.5262 -0.547236 4.95409 1.7768 0. 1
</event>
<event>
 4 80 1 -1 -1 -1
 11 -1 0 0 0 0 0 0 5 5 0 0. 9.
 -11 -1 0 0 0 0 0 0 -5 5 0 0. 9.
 15 1 1 2 0 0 -1.85641 -2.90096 -3.15919 5 1.7768 0. 1
 -15 1 1 2 0 0 1.85641 2.90096 3.15919 5 1.7768 0. -1
</event>
<event>
 4 80 1 -1 -1 -1
 11 -1 0 0 0 0 0 0 4.99996 4.99996 0 0. 9.
 -11 -1 0 0 0 0 0 0 -5 5 0 0. 9.
 15 1 1 2 0 0 -4.49503 0.656226 -1.09826 4.99998 1.7768 0. -1
 -15 1 1 2 0 0 4.49503 -0.656226 1.09822 4.99997 1.7768 0. 1
</event>
<event>
 4 80 1 -1 -1 -1
 11 -1 0 0 0 0 0 0 5 5 0 0. 9.
 -11 -1 0 0 0 0 0 0 -4.92274 4.92274 0 0. 9.
 15 1 1 2 0 0 -3.81475 -2.29999 -1.23172 4.95148 1.7768 0. -1
 -15 1 1 2 0 0 3.81475 2.29999 1.30898 4.97126 1.7768 0. 1
</event>
<event>
 4 80 1 -1 -1 -1
 11 -1 0 0 0 0 0 0 5 5 0 0. 9.
 -11 -1 0 0 0 0 0 0 -3.93023 3.93023 0 0. 9.
 15 1 1 2 0 0 2.28592 3.03342 -0.913021 4.29167 1.7768 0. 1
 -15 1 1 2 0 0 -2.28592 -3.03342 1.98279 4.63856 1.7768 0. -1
</event>
<event>
 4 80 1 -1 -1 -1
 11 -1 0 0 0 0 0 0 5 5 0 0. 9.
 -11 -1 0 0 0 0 0 0 -4.99989 4.99989 0 0. 9.
 15 1 1 2 0 0 3.36437 -3.23471 0.243773 4.99995 1.7768 0. 1
 -15 1 1 2 0 0 -3.36437 3.23471 -0.243662 4.99994 1.7768 0. -1
</event>
<event>
 4 80 1 -1 -1 -1
 11 -1 0 0 0 0 0 0 5 5 0 0. 9.
 -11 -1 0 0 0 0 0 0 -5 5 0 0. 9.
 15 1 1 2 0 0 1.12537 0.553268 -4.50219 5 1.7768 0. 1
 -15 1 1 2 0 0 -1.12537 -0.553268 4.50219 5 1.7768 0. -1
</event>
<event>
 4 80 1 -1 -1 -1
 11 -1 0 0 0 0 0 0 3.72769 3.72769 0 0. 9.
 -11 -1 0 0 0 0 0 0 -1.1998 1.1998 0 0. 9.
 15 1 1 2 0 0 0.0143796 0.0394008 -0.0709769 1.77891 1.7768 0. 1
 -15 1 1 2 0 0 -0.0143796 -0.0394008 2.59886 3.14858 1.7768 0. -1
</event>
<event>
 4 80 1 -1 -1 -1
 11 -1 0 0 0 0 0 0 4.99976 4.99976 0 0. 9.
 -11 -1 0 0 0 0 0 0 -5 5 0 0. 9.
 15 1 1 2 0 0 -1.25151 2.38862 -3.81709 4.99997 1.7768 0. 1
 -15 1 1 2 0 0 1.25151 -2.38862 3.81685 4.99979 1.7768 0. -1
</event>
<event>
 4 80 1 -1 -1 -1
 11 -1 0 0 0 0 0 0 5 5 0 0. 9.
 -11 -1 0 0 0 0 0 0 -5 5 0 0. 9.
 15 1 1 2 0 0 -0.0569347 -0.974886 4.57041 5 1.7768 0. 1
 -15 1 1 2 0 0 0.0569347 0.974886 -4.57041 5 1.7768 0. -1
</event>
<event>
 4 80 1 -1 -1 -1
 11 -1 0 0 0 0 0 0 4.99894 4.99894 0 0. 9.
 -11 -1 0 0 0 0 0 0 -5 5 0 0. 9.
 15 1 1 2 0 0 3.82368 -0.533272 -2.63341 4.99975 1.7768 0. -1
 -15 1 1 2 0 0 -3.82368 0.533272 2.63236 4.99919 1.7768 0. 1
</event>
<event>
 4 80 1 -1 -1 -1
 11 -1 0 0 0 0 0 0 5 5 0 0. 9.
 -11 -1 0 0 0 0 0 0 -4.97557 4.97557 0 0. 9.
 15 1 1 2 0 0 -4.47993 -0.495454 1.19748 4.99069 1.7768 0. 1
 -15 1 1 2 0 0 4.47993 0.495454 -1.17305 4.98488 1.7768 0. -1
</event>
<event>
 4 80 1 -1 -1 -1
 11 -1 0 0 0 0 0 0 5 5 0 0. 9.
 -11 -1 0 0 0 0 0 0 -4.92328 4.92328 0 0. 9.
 15 1 1 2 0 0 0.773439 0.500144 -4.50164 4.92654 1.7768 0. -1
 -15 1 1 2 0 0 -0.773439 -0.500144 4.57835 4.99674 1.7768 0. 1
</event>
<event>
 4 80 1 -1 -1 -1
 11 -1 0 0 0 0 0 0 5 5 0 0. 9.
 -11 -1 0 0 0 0 0 0 -5 5 0 0. 9.
 15 1 1 2 0 0 -3.75541 -2.76225 -0.330394 5 1.7768 0. 1
 -15 1 1 2 0 0 3.75541 2.76225 0.330395 5 1.7768 0. -1
</event>
<event>
 4 80 1 -1 -1 -1
 11 -1 0 0 0 0 0 0 5 5 0 0. 9.
 -11 -1 0 0 0 0 0 0 -5 5 0 0. 9.
 15 1 1 2 0 0 2.4228 3.99652 0.0103083 5 1.7768 0. -1
 -15 1 1 2 0 0 -2.4228 -3.99652 -0.0103044 5 1.7768 0. 1
</event>
<event>
 4 80 1 -1 -1 -1
 11 -1 0 0 0 0 0 0 5 5 0 0. 9.
 -11 -1 0 0 0 0 0 0 -1.40512 1.40512 0 0. 9.
 15 1 1 2 0 0 0.799231 -1.79695 1.8083 3.20865 1.7768 0. -1
 -15 1 1 2 0 0 -0.799231 1.79695 1.78658 3.19646 1.7768 0. 1
</event>
<event>
 4 80 1 -1 -1 -1
 11 -1 0 0 0 0 0 0 5 5 0 0. 9.
 -11 -1 0 0 0 0 0 0 -5 5 0 0. 9.
 15 1 1 2 0 0 2.37534 -3.97893 0.606767 5 1.7768 0. -1
 -15 1 1 2 0 0 -2.37534 3.97893 -0.606767 5 1.7768 0. 1
</event>
<event>
 4 80 1 -1 -1 -1
 11 -1 0 0 0 0 0 0 5 5 0 0. 9.
 -11 -1 0 0 0 0 0 0 -5 5 0 0. 9.
 15 1 1 2 0 0 -0.67249 -4.36703 -1.52285 5 1.7768 0. 1
 -15 1 1 2 0 0 0.67249 4.36703 1.52285 5 1.7768 0. -1
</event>
<event>
 4 80 1 -1 -1 -1
 11 -1 0 0 0 0 0 0 5 5 0 0. 9.
 -11 -1 0 0 0 0 0 0 -4.98152 4.98152 0 0. 9.
 15 1 1 2 0 0 -1.60631 4.03444 1.71011 4.99391 1.7768 0. 1
 -15 1 1 2 0 0 1.60631 -4.03444 -1.69163 4.98761 1.7768 0. -1
</event>
<event>
 4 80 1 -1 -1 -1
 11 -1 0 0 0 0 0 0 4.99973 4.99973 0 0. 9.
 -11 -1 0 0 0 0 0 0 -2.91753 2.91753 0 0. 9.
 15 1 1 2 0 0 -0.0870459 2.79234 3.01435 4.47758 1.7768 0. 1
 -15 1 1 2 0 0 0.0870459 -2.79234 -0.932154 3.43967 1.7768 0. -1
</event>
<event>
 4 80 1 -1 -1 -1
 11 -1 0 0 0 0 0 0 4.99966 4.99966 0 0. 9.
 -11 -1 0 0 0 0 0 0 -4.99997 4.99997 0 0. 9.
 15 1 1 2 0 0 2.93934 -1.69636 -3.21311 4.99992 1.7768 0. 1
 -15 1 1 2 0 0 -2.93934 1.69636 3.2128 4.99972 1.7768 0. -1
</event>
<event>
 4 80 1 -1 -1 -1
 11 -1 0 0 0 0 0 0 5 5 0 0. 9.
 -11 -1 0 0 0 0 0 0 -4.47934 4.47934 0 0. 9.
 15 1 1 2 0 0 -3.84483 -2.09249 -0.0189513 4.72433 1.7768 0. -1
 -15 1 1 2 0 0 3.84483 2.09249 0.539606 4.75501 1.7768 0. 1
</event>
<event>
 4 80 1 -1 -1 -1
 11 -1 0 0 0 0 0 0 4.93566 4.93566 0 0. 9.
 -11 -1 0 0 0 0 0 0 -5 5 0 0. 9.
 15 1 1 2 0 0 -0.501698 0.328247 -4.63239 4.99762 1.7768 0. 1
 -15 1 1 2 0 0 0.501698 -0.328247 4.56805 4.93804 1.7768 0. -1
</event>
<event>
 4 80 1 -1 -1 -1
 11 -1 0 0 0 0 0 0 4.99997 4.99997 0 0. 9.
 -11 -1 0 0 0 0 0 0 -4.99991 4.99991 0 0. 9.
 15 1 1 2 0 0 -4.3654 -0.65341 -1.53555 4.99993 1.7768 0. 1
 -15 1 1 2 0 0 4.3654 0.65341 1.5356 4.99995 1.7768 0. -1
</event>
<event>
 4 80 1 -1 -1 -1
 11 -1 0 0 0 0 0 0 5 5 0 0. 9.
 -11 -1 0 0 0 0 0 0 -4.982 4.982 0 0. 9.
 15 1 1 2 0 0 2.15578 4.1222 -0.326166 4.99039 1.7768 0. 1
 -15 1 1 2 0 0 -2.15578 -4.1222 0.344169 4.9916 1.7768 0. -1
</event>
<event>
 4 80 1 -1 -1 -1
 11 -1 0 0 0 0 0 0 4.88729 4.88729 0 0. 9.
 -11 -1 0 0 0 0 0 0 -4.99997 4.99997 0 0. 9.
 15 1 1 2 0 0 0.687437 -4.24313 1.61764 4.92455 1.7768 0. -1
 -15 1 1 2 0 0 -0.687437 4.24313 -1.73031 4.9627 1.7768 0. 1
</event>
<event>
 4 80 1 -1 -1 -1
 11 -1 0 0 0 0 0 0 4.99997 4.99997 0 0. 9.
 -11 -1 0 0 0 0 0 0 -5 5 0 0. 9.
 15 1 1 2 0 0 2.7289 0.354107 3.77753 4.99998 1.7768 0. -1
 -15 1 1 2 0 0 -2.7289 -0.354107 -3.77756 5 1.7768 0. 1
</event>
<event>
 4 80 1 -1 -1 -1
 11 -1 0 0 0 0 0 0 5 5 0 0. 9.
 -11 -1 0 0 0 0 0 0 -5 5 0 0. 9.
 15 1 1 2 0 0 0.834263 3.92207 -2.40076 5 1.7768 0. -1
 -15 1 1 2 0 0 -0.834263 -3.92207 2.40076 5 1.7768 0. 1
</event>
<event>
 4 80 1 -1 -1 -1
 11 -1 0 0 0 0 0 0 5 5 0 0. 9.
 -11 -1 0 0 0 0 0 0 -5 5 0 0. 9.
 15 1 1 2 0 0 3.81838 1.23079 -2.39737 5 1.7768 0. -1
 -15 1 1 2 0 0 -3.81838 -1.23079 2.39737 5 1.7768 0. 1
</event>
<event>
 4 80 1 -1 -1 -1
 11 -1 0 0 0 0 0 0 4.97133 4.97133 0 0. 9.
 -11 -1 0 0 0 0 0 0 -5 5 0 0. 9.
 15 1 1 2 0 0 0.917852 -0.0100065 -4.58123 4.9988 1.7768 0. -1
 -15 1 1 2 0 0 -0.917852 0.0100065 4.55256 4.97254 1.7768 0. 1
</event>
<event>
 4 80 1 -1 -1 -1
 11 -1 0 0 0 0 0 0 3.64714 3.64714 0 0. 9.
 -11 -1 0 0 0 0 0 0 -5 5 0 0. 9.
 15 1 1 2 0 0 0.249992 1.74607 2.826 3.77561 1.7768 0. 1
 -15 1 1 2 0 0 -0.249992 -1.74607 -4.17885 4.87153 1.7768 0. -1
</event>
<event>
 4 80 1 -1 -1 -1
 11 -1 0 0 0 0 0 0 4.99996 4.99996 0 0. 9.
 -11 -1 0 0 0 0 0 0 -4.2361 4.2361 0 0. 9.
 15 1 1 2 0 0 2.64781 -2.44074 2.63787 4.8046 1.7768 0. -1
 -15 1 1 2 0 0 -2.64781 2.44074 -1.87401 4.43145 1.7768 0. 1
</event>
<event>
 4 80 1 -1 -1 -1
 11 -1 0 0 0 0 0 0 5 5 0 0. 9.
 -11 -1 0 0 0 0 0 0 -4.99929 4.99929 0 0. 9.
 15 1 1 2 0 0 -4.20938 1.57679 -1.27777 4.99956 1.7768 0. 1
 -15 1 1 2 0 0 4.20938 -1.57679 1.27847 4.99974 1.7768 0. -1
</event>
<event>
 4 80 1 -1 -1 -1
 11 -1 0 0 0 0 0 0 5 5 0 0. 9.
 -11 -1 0 0 0 0 0 0 -4.99947 4.99947 0 0. 9.
 15 1 1 2 0 0 -1.92067 -0.109357 -4.25869 4.99951 1.7768 0. -1
 -15 1 1 2 0 0 1.92067 0.109357 4.25922 4.99996 1.7768 0. 1
</event>
<event>
 4 80 1 -1 -1 -1
 11 -1 0 0 0 0 0 0 4.99999 4.99999 0 0. 9.
 -11 -1 0 0 0 0 0 0 -5 5 0 0. 9.
 15 1 1 2 0 0 0.545118 2.94869 -3.58474 5 1.7768 0. -1
 -15 1 1 2 0 0 -0.545118 -2.94869 3.58473 4.99999 1.7768 0. 1
</event>
<event>
 4 80 1 -1 -1 -1
 11 -1 0 0 0 0 0 0 5 5 0 0. 9.
 -11 -1 0 0 0 0 0 0 -4.99198 4.99198 0 0. 9.
 15 1 1 2 0 0 -3.9779 2.14912 -1.16205 4.99505 1.7768 0. -1
 -15 1 1 2 0 0 3.9779 -2.14912 1.17007 4.99692 1.7768 0. 1
</event>
<event>
 4 80 1 -1 -1 -1
 11 -1 0 0 0 0 0 0 5 5 0 0. 9.
 -11 -1 0 0 0 0 0 0 -5 5 0 0. 9.
 15 1 1 2 0 0 3.804 -1.23889 -2.41599 5 1.7768 0. -1
 -15 1 1 2 0 0 -3.804 1.23889 2.41599 5 1.7768 0. 1
</event>
<event>
 4 80 1 -1 -1 -1
 11 -1 0 0 0 0 0 0 1.20425 1.20425 0 0. 9.
 -11 -1 0 0 0 0 0 0 -3.21489 3.21489 0 0. 9.
 15 1 1 2 0 0 -0.248317 -0.25033 -0.143126 1.81729 1.7768 0. 1
 -15 1 1 2 0 0 0.248317 0.25033 -1.86751 2.60185 1.7768 0. -1
</event>
<event>
 4 80 1 -1 -1 -1
 11 -1 0 0 0 0 0 0 5 5 0 0. 9.
 -11 -1 0 0 0 0 0 0 -5 5 0 0. 9.
 15 1 1 2 0 0 -0.891911 1.56896 -4.31105 5 1.7768 0. -1
 -15 1 1 2 0 0 0.891911 -1.56896 4.31105 5 1.7768 0. 1
</event>
<event>
 4 80 1 -1 -1 -1
 11 -1 0 0 0 0 0 0 5 5 0 0. 9.
 -11 -1 0 0 0 0 0 0 -4.99213 4.99213 0 0. 9.
 15 1 1 2 0 0 3.04308 -0.722116 -3.46322 4.99334 1.7768 0. -1
 -15 1 1 2 0 0 -3.04308 0.722116 3.47109 4.9988 1.7768 0. 1
</event>
<event>
 4 80 1 -1 -1 -1
 11 -1 0 0 0 0 0 0 5 5 0 0. 9.
 -11 -1 0 0 0 0 0 0 -4.9977 4.9977 0 0. 9.
 15 1 1 2 0 0 -4.05845 0.683247 2.21314 4.99936 1.7768 0. -1
 -15 1 1 2 0 0 4.05845 -0.683247 -2.21084 4.99834 1.7768 0. 1
</event>
<event>
 4 80 1 -1 -1 -1
 11 -1 0 0 0 0 0 0 5 5 0 0. 9.
 -11 -1 0 0 0 0 0 0 -5 5 0 0. 9.
 15 1 1 2 0 0 -0.517421 -0.898258 4.55716 5 1.7768 0. 1
 -15 1 1 2 0 0 0.517421 0.898258 -4.55716 5 1.7768 0. -1
</event>
<event>
 4 80 1 -1 -1 -1
 11 -1 0 0 0 0 0 0 4.99993 4.99993 0 0. 9.
 -11 -1 0 0 0 0 0 0 -5 5 0 0. 9.
 15 1 1 2 0 0 -3.67785 2.17503 -1.89332 4.99998 1.7768 0. 1
 -15 1 1 2 0 0 3.67785 -2.17503 1.89326 4.99995 1.7768 0. -1
</event>
<event>
 4 80 1 -1 -1 -1
 11 -1 0 0 0 0 0 0 0.870286 0.870286 0 0. 9.
 -11 -1 0 0 0 0 0 0 -5 5 0 0. 9.
 15 1 1 2 0 0 1.06056 0.262508 -2.05937 2.93128 1.7768 0. -1
 -15 1 1 2 0 0 -1.06056 -0.262508 -2.07035 2.939 1.7768 0. 1
</event>
<event>
 4 80 1 -1 -1 -1
 11 -1 0 0 0 0 0 0 5 5 0 0. 9.
 -11 -1 0 0 0 0 0 0 -0.697264 0.697264 0 0. 9.
 15 1 1 2 0 0 0.554044 0.134466 2.06051 2.78001 1.7768 0. -1
 -15 1 1 2 0 0 -0.554044 -0.134466 2.24222 2.91725 1.7768 0. 1
</event>
<event>
 4 80 1 -1 -1 -1
 11 -1 0 0 0 0 0 0 5 5 0 0. 9.
 -11 -1 0 0 0 0 0 0 -5 5 0 0. 9.
 15 1 1 2 0 0 -0.521764 -3.69158 -2.81821 5 1.7768 0. 1
 -15 1 1 2 0 0 0.521764 3.69158 2.8182 5 1.7768 0. -1
</event>
<event>
 4 80 1 -1 -1 -1
 11 -1 0 0 0 0 0 0 5 5 0 0. 9.
 -11 -1 0 0 0 0 0 0 -5 5 0 0. 9.
 15 1 1 2 0 0 -0.877123 3.00584 -3.46956 5 1.7768 0. 1
 -15 1 1 2 0 0 0.877123 -3.00584 3.46956 5 1.7768 0. -1
</event>
<event>
 4 80 1 -1 -1 -1
 11 -1 0 0 0 0 0 0 5 5 0 0. 9.
 -11 -1 0 0 0 0 0 0 -5 5 0 0. 9.
 15 1 1 2 0 0 -0.939149 1.06845 -4.45182 5 1.7768 0. -1
 -15 1 1 2 0 0 0.939149 -1.06845 4.45182 5 1.7768 0. 1
</event>
<event>
 4 80 1 -1 -1 -1
 11 -1 0 0 0 0 0 0 4.8849 4.8849 0 0. 9.
 -11 -1 0 0 0 0 0 0 -5 5 0 0. 9.
 15 1 1 2 0 0 -2.04267 -1.13483 3.91844 4.89615 1.7768 0. -1
 -15 1 1 2 0 0 2.04267 1.13483 -4.03355 4.98875 1.7768 0. 1
</event>
<event>
 4 80 1 -1 -1 -1
 11 -1 0 0 0 0 0 0 4.99904 4.99904 0 0. 9.
 -11 -1 0 0 0 0 0 0 -5 5 0 0. 9.
 15 1 1 2 0 0 1.38025 1.01543 -4.34804 4.99994 1.7768 0. -1
 -15 1 1 2 0 0 -1.38025 -1.01543 4.34708 4.9991 1.7768 0. 1
</event>
<event>
 4 80 1 -1 -1 -1
 11 -1 0 0 0 0 0 0 4.93215 4.93215 0 0. 9.
 -11 -1 0 0 0 0 0 0 -4.99383 4.99383 0 0. 9.
 15 1 1 2 0 0 -1.60675 2.61615 3.44006 4.94142 1.7768 0. -1
 -15 1 1 2 0 0 1.60675 -2.61615 -3.50174 4.98456 1.7768 0. 1
</event>
<event>
 4 80 1 -1 -1 -1
 11 -1 0 0 0 0 0 0 5 5 0 0. 9.
 -11 -1 0 0 0 0 0 0 -4.99996 4.99996 0 0. 9.
 15 1 1 2 0 0 -0.156004 3.29892 -3.30677 4.99997 1.7768 0. -1
 -15 1 1 2 0 0 0.156004 -3.29892 3.30681 4.99999 1.7768 0. 1
</event>
<event>
 4 80 1 -1 -1 -1
 11 -1 0 0 0 0 0 0 5 5 0 0. 9.
 -11 -1 0 0 0 0 0 0 -4.87181 4.87181 0 0. 9.
 15 1 1 2 0 0 -4.21633 1.85028 0.0826353 4.93615 1.7768 0. -1
 -15 1 1 2 0 0 4.21633 -1.85028 0.0455531 4.93566 1.7768 0. 1
</event>
<event>
 4 80 1 -1 -1 -1
 11 -1 0 0 0 0 0 0 4.87063 4.87063 0 0. 9.
 -11 -1 0 0 0 0 0 0 -5 5 0 0. 9.
 15 1 1 2 0 0 -4.32741 1.22124 0.924103 4.92236 1.7768 0. -1
 -15 1 1 2 0 0 4.32741 -1.22124 -1.05347 4.94828 1.7768 0. 1
</event>
<event>
 4 80 1 -1 -1 -1
 11 -1 0 0 0 0 0 0 5 5 0 0. 9.
 -11 -1 0 0 0 0 0 0 -4.0983 4.0983 0 0. 9.
 15 1 1 2 0 0 3.25853 -0.256828 3.04232 4.80598 1.7768 0. 1
 -15 1 1 2 0 0 -3.25853 0.256828 -2.14062 4.29232 1.7768 0. -1
</event>
<event>
 4 80 1 -1 -1 -1
 11 -1 0 0 0 0 0 0 5 5 0 0. 9.
 -11 -1 0 0 0 0 0 0 -5 5 0 0. 9.
 15 1 1 2 0 0 -0.841364 1.8851 4.19294 5 1.7768 0. 1
 -15 1 1 2 0 0 0.841364 -1.8851 -4.19294 5 1.7768 0. -1
</event>
<event>
 4 80 1 -1 -1 -1
 11 -1 0 0 0 0 0 0 5 5 0 0. 9.
 -11 -1 0 0 0 0 0 0 -4.98798 4.98798 0 0. 9.
 15 1 1 2 0 0 1.17695 4.51598 0.0600434 4.99406 1.7768 0. 1
 -15 1 1 2 0 0 -1.17695 -4.51598 -0.0480271 4.99393 1.7768 0. -1
</event>
<event>
 4 80 1 -1 -1 -1
 11 -1 0 0 0 0 0 0 4.9993 4.9993 0 0. 9.
 -11 -1 0 0 0 0 0 0 -4.61488 4.61488 0 0. 9.
 15 1 1 2 0 0 -1.49218 0.275848 -4.00766 4.63916 1.7768 0. 1
 -15 1 1 2 0 0 1.49218 -0.275848 4.39209 4.97502 1.7768 0. -1
</event>
<event>
 4 80 1 -1 -1 -1
 11 -1 0 0 0 0 0 0 5 5 0 0. 9.
 -11 -1 0 0 0 0 0 0 -5 5 0 0. 9.
 15 1 1 2 0 0 -0.817697 2.66429 -3.75169 5 1.7768 0. 1
 -15 1 1 2 0 0 0.817697 -2.66429 3.75169 5 1.7768 0. -1
</event>
<event>
 4 80 1 -1 -1 -1
 11 -1 0 0 0 0 0 0 4.91922 4.91922 0 0. 9.
 -11 -1 0 0 0 0 0 0 -4.90877 4.90877 0 0. 9.
 15 1 1 2 0 0 2.26426 0.678075 -3.91944 4.90982 1.7768 0. 1
 -15 1 1 2 0 0 -2.26426 -0.678075 3.92989 4.91817 1.7768 0. -1
</event>
<event>
 4 80 1 -1 -1 -1
 11 -1 0 0 0 0 0 0 5 5 0 0. 9.
 -11 -1 0 0 0 0 0 0 -5 5 0 0. 9.
 15 1 1 2 0 0 0.196439 -4.1644 -2.11221 5 1.7768 0. 1
 -15 1 1 2 0 0 -0.196439 4.1644 2.11221 5 1.7768 0. -1
</event>
<event>
 4 80 1 -1 -1 -1
 11 -1 0 0 0 0 0 0 5 5 0 0. 9.
 -11 -1 0 0 0 0 0 0 -4.90696 4.90696 0 0. 9.
 15 1 1 2 0 0 2.08315 0.827268 4.0906 4.99146 1.7768 0. 1
 -15 1 1 2 0 0 -2.08315 -0.827268 -3.99757 4.9155 1.7768 0. -1
</event>
<event>
 4 80 1 -1 -1 -1
 11 -1 0 0 0 0 0 0 4.99998 4.99998 0 0. 9.
 -11 -1 0 0 0 0 0 0 -4.99974 4.99974 0 0. 9.
 15 1 1 2 0 0 -0.761489 3.11816 3.3969 4.99994 1.7768 0. 1
 -15 1 1 2 0 0 0.761489 -3.11816 -3.39666 4.99978 1.7768 0. -1
</event>
<event>
 4 80 1 -1 -1 -1
 11 -1 0 0 0 0 0 0 5 5 0 0. 9.
 -11 -1 0 0 0 0 0 0 -5 5 0 0. 9.
 15 1 1 2 0 0 1.23189 0.716286 4.45103 5 1.7768 0. -1
 -15 1 1 2 0 0 -1.23189 -0.716286 -4.45103 5 1.7768 0. 1
</event>
<event>
 4 80 1 -1 -1 -1
 11 -1 0 0 0 0 0 0 5 5 0 0. 9.
 -11 -1 0 0 0 0 0 0 -5 5 0 0. 9.
 15 1 1 2 0 0 4.29707 -1.71529 -0.659722 5 1.7768 0. -1
 -15 1 1 2 0 0 -4.29707 1.71529 0.659722 5 1.7768 0. 1
</event>
<event>
 4 80 1 -1 -1 -1
 11 -1 0 0 0 0 0 0 5 5 0 0. 9.
 -11 -1 0 0 0 0 0 0 -2.03107 2.03107 0 0. 9.
 15 1 1 2 0 0 -2.13378 -1.44702 0.831152 3.23967 1.7768 0. 1
 -15 1 1 2 0 0 2.13378 1.44702 2.13778 3.7914 1.7768 0. -1
</event>
<event>
 4 80 1 -1 -1 -1
 11 -1 0 0 0 0 0 0 5 5 0 0. 9.
 -11 -1 0 0 0 0 0 0 -5 5 0 0. 9.
 15 1 1 2 0 0 -1.21144 4.41085 -0.958688 5 1.7768 0. -1
 -15 1 1 2 0 0 1.21144 -4.41085 0.958688 5 1.7768 0. 1
</event>
<event>
 4 80 1 -1 -1 -1
 11 -1 0 0 0 0 0 0 5 5 0 0. 9.
 -11 -1 0 0 0 0 0 0 -5 5 0 0. 9.
 15 1 1 2 0 0 2.09438 -4.17317 -0.201285 5 1.7768 0. 1
 -15 1 1 2 0 0 -2.09438 4.17317 0.201285 5 1.7768 0. -1
</event>
<event>
 4 80 1 -1 -1 -1
 11 -1 0 0 0 0 0 0 5 5 0 0. 9.
 -11 -1 0 0 0 0 0 0 -5 5 0 0. 9.
 15 1 1 2 0 0 -1.60855 1.50567 4.12162 5 1.7768 0. -1
 -15 1 1 2 0 0 1.60855 -1.50567 -4.12162 5 1.7768 0. 1
</event>
<event>
 4 80 1 -1 -1 -1
 11 -1 0 0 0 0 0 0 5 5 0 0. 9.
 -11 -1 0 0 0 0 0 0 -4.99987 4.99987 0 0. 9.
 15 1 1 2 0 0 -3.64516 2.29169 -1.81723 4.99991 1.7768 0. 1
 -15 1 1 2 0 0 3.64516 -2.29169 1.81736 4.99996 1.7768 0. -1
</event>
<event>
 4 80 1 -1 -1 -1
 11 -1 0 0 0 0 0 0 5 5 0 0. 9.
 -11 -1 0 0 0 0 0 0 -4.99996 4.99996 0 0. 9.
 15 1 1 2 0 0 -3.23247 -0.8123 -3.27616 4.99996 1.7768 0. -1
 -15 1 1 2 0 0 3.23247 0.8123 3.2762 4.99999 1.7768 0. 1
</event>
<event>
 4 80 1 -1 -1 -1
 11 -1 0 0 0 0 0 0 4.93556 4.93556 0 0. 9.
 -11 -1 0 0 0 0 0 0 -5 5 0 0. 9.
 15 1 1 2 0 0 -1.23776 3.9778 2.00868 4.95454 1.7768 0. 1
 -15 1 1 2 0 0 1.23776 -3.9778 -2.07312 4.98102 1.7768 0. -1
</event>
<event>
 4 80 1 -1 -1 -1
 11 -1 0 0 0 0 0 0 5 5 0 0. 9.
 -11 -1 0 0 0 0 0 0 -4.98884 4.98884 0 0. 9.
 15 1 1 2 0 0 -1.68521 -2.31617 3.69094 4.99854 1.7768 0. 1
 -15 1 1 2 0 0 1.68521 2.31617 -3.67978 4.9903 1.7768 0. -1
</event>
<event>
 4 80 1 -1 -1 -1
 11 -1 0 0 0 0 0 0 4.99448 4.99448 0 0. 9.
 -11 -1 0 0 0 0 0 0 -5 5 0 0. 9.
 15 1 1 2 0 0 -3.11093 2.10792 2.77095 4.99571 1.7768 0. 1
 -15 1 1 2 0 0 3.11093 -2.10792 -2.77647 4.99877 1.7768 0. -1
</event>
<event>
 4 80 1 -1 -1 -1
 11 -1 0 0 0 0 0 0 4.99916 4.99916 0 0. 9.
 -11 -1 0 0 0 0 0 0 -5 5 0 0. 9.
 15 1 1 2 0 0 -1.40971 -1.78012 4.08394 4.99924 1.7768 0. -1
 -15 1 1 2 0 0 1.40971 1.78012 -4.08478 4.99992 1.7768 0. 1
</event>
<event>
 4 80 1 -1 -1 -1
 11 -1 0 0 0 0 0 0 4.98755 4.98755 0 0. 9.
 -11 -1 0 0 0 0 0 0 -5 5 0 0. 9.
 15 1 1 2 0 0 -3.33943 3.25772 0.118249 4.99362 1.7768 0. 1
 -15 1 1 2 0 0 3.33943 -3.25772 -0.130703 4.99393 1.7768 0. -1
</event>
<event>
 4 80 1 -1 -1 -1
 11 -1 0 0 0 0 0 0 4.88782 4.88782 0 0. 9.
 -11 -1 0 0 0 0 0 0 -5 5 0 0. 9.
 15 1 1 2 0 0 0.808014 0.682626 4.43447 4.89296 1.7768 0. 1
 -15 1 1 2 0 0 -0.808014 -0.682626 -4.54665 4.99486 1.7768 0. -1
</event>
<event>
 4 80 1 -1 -1 -1
 11 -1 0 0 0 0 0 0 5 5 0 0. 9.
 -11 -1 0 0 0 0 0 0 -5 5 0 0. 9.
 15 1 1 2 0 0 1.07459 3.36408 -3.06113 5 1.7768 0. 1
 -15 1 1 2 0 0 -1.07459 -3.36408 3.06113 5 1.7768 0. -1
</event>
<event>
 4 80 1 -1 -1 -1
 11 -1 0 0 0 0 0 0 5 5 0 0. 9.
 -11 -1 0 0 0 0 0 0 -5 5 0 0. 9.
 15 1 1 2 0 0 4.37099 -0.010245 -1.65428 5 1.7768 0. 1
 -15 1 1 2 0 0 -4.37099 0.010245 1.65428 5 1.7768 0. -1
</event>
<event>
 4 80 1 -1 -1 -1
 11 -1 0 0 0 0 0 0 5 5 0 0. 9.
 -11 -1 0 0 0 0 0 0 -5 5 0 0. 9.
 15 1 1 2 0 0 -2.8612 -2.40778 -2.80328 5 1.7768 0. -1
 -15 1 1 2 0 0 2.8612 2.40778 2.80328 5 1.7768 0. 1
</event>
<event>
 4 80 1 -1 -1 -1
 11 -1 0 0 0 0 0 0 4.79737 4.79737 0 0. 9.
 -11 -1 0 0 0 0 0 0 -5 5 0 0. 9.
 15 1 1 2 0 0 -0.392318 1.07964 4.3166 4.80732 1.7768 0. 1
 -15 1 1 2 0 0 0.392318 -1.07964 -4.51923 4.99006 1.7768 0. -1
</event>
<event>
 4 80 1 -1 -1 -1
 11 -1 0 0 0 0 0 0 5 5 0 0. 9.
 -11 -1 0 0 0 0 0 0 -4.99976 4.99976 0 0. 9.
 15 1 1 2 0 0 -3.71799 -1.41586 -2.45202 4.99982 1.7768 0. -1
 -15 1 1 2 0 0 3.71799 1.41586 2.45226 4.99994 1.7768 0. 1
</event>
<event>
 4 80 1 -1 -1 -1
 11 -1 0 0 0 0 0 0 5 5 0 0. 9.
 -11 -1 0 0 0 0 0 0 -4.9798 4.9798 0 0. 9.
 15 1 1 2 0 0 4.31685 0.978033 -1.45604 4.98693 1.7768 0. 1
 -15 1 1 2 0 0 -4.31685 -0.978033 1.47624 4.99287 1.7768 0. -1
</event>
<event>
 4 80 1 -1 -1 -1
 11 -1 0 0 0 0 0 0 5 5 0 0. 9.
 -11 -1 0 0 0 0 0 0 -5 5 0 0. 9.
 15 1 1 2 0 0 -4.34231 1.52761 0.808071 5 1.7768 0. -1
 -15 1 1 2 0 0 4.34231 -1.52761 -0.808073 5 1.7768 0. 1
</event>
<event>
 4 80 1 -1 -1 -1
 11 -1 0 0 0 0 0 0 5 5 0 0. 9.
 -11 -1 0 0 0 0 0 0 -5 5 0 0. 9.
 15 1 1 2 0 0 4.15812 -1.49559 -1.52168 5 1.7768 0. -1
 -15 1 1 2 0 0 -4.15812 1.49559 1.52168 5 1.7768 0. 1
</event>
<event>
 4 80 1 -1 -1 -1
 11 -1 0 0 0 0 0 0 5 5 0 0. 9.
 -11 -1 0 0 0 0 0 0 -4.99706 4.99706 0 0. 9.
 15 1 1 2 0 0 -0.990025 -2.23385 -3.98065 4.99736 1.7768 0. 1
 -15 1 1 2 0 0 0.990025 2.23385 3.9836 4.9997 1.7768 0. -1
</event>
<event>
 4 80 1 -1 -1 -1
 11 -1 0 0 0 0 0 0 5 5 0 0. 9.
 -11 -1 0 0 0 0 0 0 -5 5 0 0. 9.
 15 1 1 2 0 0 -1.94104 -2.37289 -3.52761 5 1.7768 0. 1
 -15 1 1 2 0 0 1.94104 2.37289 3.52761 5 1.7768 0. -1
</event>
<event>
 4 80 1 -1 -1 -1
 11 -1 0 0 0 0 0 0 4.99212 4.99212 0 0. 9.
 -11 -1 0 0 0 0 0 0 -4.99694 4.99694 0 0. 9.
 15 1 1 2 0 0 -0.128076 1.09157 4.53408 4.99235 1.7768 0. 1
 -15 1 1 2 0 0 0.128076 -1.09157 -4.53889 4.99672 1.7768 0. -1
</event>
<event>
 4 80 1 -1 -1 -1
 11 -1 0 0 0 0 0 0 4.7661 4.7661 0 0. 9.
 -11 -1 0 0 0 0 0 0 -4.99942 4.99942 0 0. 9.
 15 1 1 2 0 0 0.0359001 -0.130142 4.42906 4.77415 1.7768 0. 1
 -15 1 1 2 0 0 -0.0359001 0.130142 -4.66238 4.99137 1.7768 0. -1
</event>
<event>
 4 80 1 -1 -1 -1
 11 -1 0 0 0 0 0 0 4.83515 4.83515 0 0. 9.
 -11 -1 0 0 0 0 0 0 -3.51496 3.51496 0 0. 9.
 15 1 1 2 0 0 -2.65528 1.16256 -1.70103 3.80175 1.7768 0. 1
 -15 1 1 2 0 0 2.65528 -1.16256 3.02123 4.54836 1.7768 0. -1
</event>
<event>
 4 80 1 -1 -1 -1
 11 -1 0 0 0 0 0 0 5 5 0 0. 9.
 -11 -1 0 0 0 0 0 0 -5 5 0 0. 9.
 15 1 1 2 0 0 2.79638 -1.41714 3.46615 5 1.7768 0. 1
 -15 1 1 2 0 0 -2.79638 1.41714 -3.46615 5 1.7768 0. -1
</event>
<event>
 4 80 1 -1 -1 -1
 11 -1 0 0 0 0 0 0 4.99998 4.99998 0 0. 9.
 -11 -1 0 0 0 0 0 0 -4.4689 4.4689 0 0. 9.
 15 1 1 2 0 0 -2.55179 0.902373 3.71492 4.9279 1.7768 0. 1
 -15 1 1 2 0 0 2.55179 -0.902373 -3.18384 4.54097 1.7768 0. -1
</event>
<event>
 4 80 1 -1 -1 -1
 11 -1 0 0 0 0 0 0 4.15454 4.15454 0 0. 9.
 -11 -1 0 0 0 0 0 0 -2.1084 2.1084 0 0. 9.
 15 1 1 2 0 0 -0.486073 -1.54541 -0.802556 2.53503 1.7768 0. -1
 -15 1 1 2 0 0 0.486073 1.54541 2.8487 3.72792 1.7768 0. 1
</event>
<event>
 4 80 1 -1 -1 -1
 11 -1 0 0 0 0 0 0 5 5 0 0. 9.
 -11 -1 0 0 0 0 0 0 -5 5 0 0. 9.
 15 1 1 2 0 0 -2.09151 -1.51941 -3.89349 5 1.7768 0. -1
 -15 1 1 2 0 0 2.09151 1.51941 3.89349 5 1.7768 0. 1
</event>
<event>
 4 80 1 -1 -1 -1
 11 -1 0 0 0 0 0 0 4.99913 4.99913 0 0. 9.
 -11 -1 0 0 0 0 0 0 -5 5 0 0. 9.
 15 1 1 2 0 0 -3.62019 -2.60509 -1.39532 4.99969 1.7768 0. -1
 -15 1 1 2 0 0 3.62019 2.60509 1.39445 4.99944 1.7768 0. 1
</event>
<event>
 4 80 1 -1 -1 -1
 11 -1 0 0 0 0 0 0 4.99682 4.99682 0 0. 9.
 -11 -1 0 0 0 0 0 0 -4.99969 4.99969 0 0. 9.
 15 1 1 2 0 0 -2.33408 -4.0305 -0.364641 4.99835 1.7768 0. -1
 -15 1 1 2 0 0 2.33408 4.0305 0.361771 4.99815 1.7768 0. 1
</event>
<event>
 4 80 1 -1 -1 -1
 11 -1 0 0 0 0 0 0 5 5 0 0. 9.
 -11 -1 0 0 0 0 0 0 -5 5 0 0. 9.
 15 1 1 2 0 0 0.612166 0.365108 4.6189 5 1.7768 0. -1
 -15 1 1 2 0 0 -0.612166 -0.365108 -4.6189 5 1.7768 0. 1
</event>
<event>
 4 80 1 -1 -1 -1
 11 -1 0 0 0 0 0 0 5 5 0 0. 9.
 -11 -1 0 0 0 0 0 0 -4.73361 4.73361 0 0. 9.
 15 1 1 2 0 0 -0.291332 -0.298318 -4.37809 4.74334 1.7768 0. -1
 -15 1 1 2 0 0 0.291332 0.298318 4.64448 4.99027 1.7768 0. 1
</event>
<event>
 4 80 1 -1 -1 -1
 11 -1 0 0 0 0 0 0 5 5 0 0. 9.
 -11 -1 0 0 0 0 0 0 -5 5 0 0. 9.
 15 1 1 2 0 0 4.3163 0.420012 -1.74224 5 1.7768 0. 1
 -15 1 1 2 0 0 -4.3163 -0.420012 1.74224 5 1.7768 0. -1
</event>
<event>
 4 80 1 -1 -1 -1
 11 -1 0 0 0 0 0 0 5 5 0 0. 9.
 -11 -1 0 0 0 0 0 0 -4.9998 4.9998 0 0. 9.
 15 1 1 2 0 0 3.79858 -1.36205 -2.35721 4.99985 1.7768 0. 1
 -15 1 1 2 0 0 -3.79858 1.36205 2.35741 4.99995 1.7768 0. -1
</event>
<event>
 4 80 1 -1 -1 -1
 11 -1 0 0 0 0 0 0 5 5 0 0. 9.
 -11 -1 0 0 0 0 0 0 -5 5 0 0. 9.
 15 1 1 2 0 0 1.95761 -3.44898 -2.47276 5 1.7768 0. 1
 -15 1 1 2 0 0 -1.95761 3.44898 2.47277 5 1.7768 0. -1
</event>
<event>
 4 80 1 -1 -1 -1
 11 -1 0 0 0 0 0 0 5 5 0 0. 9.
 -11 -1 0 0 0 0 0 0 -4.98086 4.98086 0 0. 9.
 15 1 1 2 0 0 -1.11005 -2.41381 3.84206 4.99778 1.7768 0. 1
 -15 1 1 2 0 0 1.11005 2.41381 -3.82291 4.98308 1.7768 0. -1
</event>
<event>
 4 80 1 -1 -1 -1
 11 -1 0 0 0 0 0 0 4.81271 4.81271 0 0. 9.
 -11 -1 0 0 0 0 0 0 -5 5 0 0. 9.
 15 1 1 2 0 0 2.31978 -2.33844 -3.26536 4.96689 1.7768 0. 1
 -15 1 1 2 0 0 -2.31978 2.33844 3.07807 4.84581 1.7768 0. -1
</event>
<event>
 4 80 1 -1 -1 -1
 11 -1 0 0 0 0 0 0 5 5 0 0. 9.
 -11 -1 0 0 0 0 0 0 -0.697913 0.697913 0 0. 9.
 15 1 1 2 0 0 -0.379669 0.359116 2.52061 3.12799 1.7768 0. 1
 -15 1 1 2 0 0 0.379669 -0.359116 1.78148 2.56992 1.7768 0. -1
</event>
<event>
 4 80 1 -1 -1 -1
 11 -1 0 0 0 0 0 0 5 5 0 0. 9.
 -11 -1 0 0 0 0 0 0 -5 5 0 0. 9.
 15 1 1 2 0 0 -4.64718 0.14232 0.475097 5 1.7768 0. -1
 -15 1 1 2 0 0 4.64718 -0.14232 -0.475097 5 1.7768 0. 1
</event>
<event>
 4 80 1 -1 -1 -1
 11 -1 0 0 0 0 0 0 5 5 0 0. 9.
 -11 -1 0 0 0 0 0 0 -4.93966 4.93966 0 0. 9.
 15 1 1 2 0 0 -0.528198 -0.0837211 -4.58018 4.94184 1.7768 0. -1
 -15 1 1 2 0 0 0.528198 0.0837211 4.64052 4.99782 1.7768 0. 1
</event>
<event>
 4 80 1 -1 -1 -1
 11 -1 0 0 0 0 0 0 5 5 0 0. 9.
 -11 -1 0 0 0 0 0 0 -4.82133 4.82133 0 0. 9.
 15 1 1 2 0 0 2.15567 -2.15812 3.5023 4.97275 1.7768 0. -1
 -15 1 1 2 0 0 -2.15567 2.15812 -3.32363 4.84857 1.7768 0. 1
</event>
<event>
 4 80 1 -1 -1 -1
 11 -1 0 0 0 0 0 0 4.9999 4.9999 0 0. 9.
 -11 -1 0 0 0 0 0 0 -5 5 0 0. 9.
 15 1 1 2 0 0 1.88561 -1.48091 -4.01168 4.99999 1.7768 0. 1
 -15 1 1 2 0 0 -1.88561 1.48091 4.01159 4.99991 1.7768 0. -1
</event>
<event>
 4 80 1 -1 -1 -1
 11 -1 0 0 0 0 0 0 5 5 0 0. 9.
 -11 -1 0 0 0 0 0 0 -4.93156 4.93156 0 0. 9.
 15 1 1 2 0 0 2.58229 3.2587 2.08677 4.97992 1.7768 0. 1
 -15 1 1 2 0 0 -2.58229 -3.2587 -2.01832 4.95163 1.7768 0. -1
</event>
<event>
 4 80 1 -1 -1 -1
 11 -1 0 0 0 0 0 0 5 5 0 0. 9.
 -11 -1 0 0 0 0 0 0 -4.99981 4.99981 0 0. 9.
 15 1 1 2 0 0 1.72351 4.34403 0.0156722 4.9999 1.7768 0. 1
 -15 1 1 2 0 0 -1.72351 -4.34403 -0.0154775 4.9999 1.7768 0. -1
</event>
<event>
 4 80 1 -1 -1 -1
 11 -1 0 0 0 0 0 0 5 5 0 0. 9.
 -11 -1 0 0 0 0 0 0 -2.34216 2.34216 0 0. 9.
 15 1 1 2 0 0 0.512744 0.138646 -1.75624 2.55426 1.7768 0. 1
 -15 1 1 2 0 0 -0.512744 -0.138646 4.41408 4.7879 1.7768 0. -1
</event>
<event>
 4 80 1 -1 -1 -1
 11 -1 0 0 0 0 0 0 4.99998 4.99998 0 0. 9.
 -11 -1 0 0 0 0 0 0 -5 5 0 0. 9.
 15 1 1 2 0 0 1.36721 4.2809 -1.28327 4.99999 1.7768 0. 1
 -15 1 1 2 0 0 -1.36721 -4.2809 1.28325 4.99999 1.7768 0. -1
</event>
<event>
 4 80 1 -1 -1 -1
 11 -1 0 0 0 0 0 0 4.66966 4.66966 0 0. 9.
 -11 -1 0 0 0 0 0 0 -4.37752 4.37752 0 0. 9.
 15 1 1 2 0 0 -1.4658 1.822 3.58523 4.63464 1.7768 0. -1
 -15 1 1 2 0 0 1.4658 -1.822 -3.29309 4.41253 1.7768 0. 1
</event>
<event>
 4 80 1 -1 -1 -1
 11 -1 0 0 0 0 0 0 5 5 0 0. 9.
 -11 -1 0 0 0 0 0 0 -4.15803 4.15803 0 0. 9.
 15 1 1 2 0 0 4.18389 0.335946 0.542443 4.59018 1.7768 0. 1
 -15 1 1 2 0 0 -4.18389 -0.335946 0.299523 4.56785 1.7768 0. -1
</event>
<event>
 4 80 1 -1 -1 -1
 11 -1 0 0 0 0 0 0 5 5 0 0. 9.
 -11 -1 0 0 0 0 0 0 -5 5 0 0. 9.
 15 1 1 2 0 0 -4.0124 -1.23314 -2.05481 5 1.7768 0. -1
 -15 1 1 2 0 0 4.0124 1.23314 2.05481 5 1.7768 0. 1
</event>
<event>
 4 80 1 -1 -1 -1
 11 -1 0 0 0 0 0 0 5 5 0 0. 9.
 -11 -1 0 0 0 0 0 0 -1.69292 1.69292 0 0. 9.
 15 1 1 2 0 0 0.815786 -1.98954 2.6042 3.8162 1.7768 0. 1
 -15 1 1 2 0 0 -0.815786 1.98954 0.702877 2.87672 1.7768 0. -1
</event>
<event>
 4 80 1 -1 -1 -1
 11 -1 0 0 0 0 0 0 4.99999 4.99999 0 0. 9.
 -11 -1 0 0 0 0 0 0 -4.99997 4.99997 0 0. 9.
 15 1 1 2 0 0 -3.31764 -0.724768 3.21094 4.99999 1.7768 0. 1
 -15 1 1 2 0 0 3.31764 0.724768 -3.21092 4.99998 1.7768 0. -1
</event>
<event>
 4 80 1 -1 -1 -1
 11 -1 0 0 0 0 0 0 4.95293 4.95293 0 0. 9.
 -11 -1 0 0 0 0 0 0 -4.84168 4.84168 0 0. 9.
 15 1 1 2 0 0 4.07085 1.91062 -0.719302 4.8885 1.7768 0. -1
 -15 1 1 2 0 0 -4.07085 -1.91062 0.830557 4.90611 1.7768 0. 1
</event>
<event>
 4 80 1 -1 -1 -1
 11 -1 0 0 0 0 0 0 4.97191 4.97191 0 0. 9.
 -11 -1 0 0 0 0 0 0 -3.84631 3.84631 0 0. 9.
 15 1 1 2 0 0 -3.87518 -0.232092 -0.391007 4.28736 1.7768 0. -1
 -15 1 1 2 0 0 3.87518 0.232092 1.51661 4.53086 1.7768 0. 1
</event>
<event>
 4 80 1 -1 -1 -1
 11 -1 0 0 0 0 0 0 3.23602 3.23602 0 0. 9.
 -11 -1 0 0 0 0 0 0 -2.49119 2.49119 0 0. 9.
 15 1 1 2 0 0 -0.542329 0.696938 -1.67573 2.59724 1.7768 0. 1
 -15 1 1 2 0 0 0.542329 -0.696938 2.42056 3.12997 1.7768 0. -1
</event>
<event>
 4 80 1 -1 -1 -1
 11 -1 0 0 0 0 0 0 5 5 0 0. 9.
 -11 -1 0 0 0 0 0 0 -5 5 0 0. 9.
 15 1 1 2 0 0 2.42992 3.98073 0.302541 5 1.7768 0. 1
 -15 1 1 2 0 0 -2.42992 -3.98073 -0.302541 5 1.7768 0. -1
</event>
<event>
 4 80 1 -1 -1 -1
 11 -1 0 0 0 0 0 0 5 5 0 0. 9.
 -11 -1 0 0 0 0 0 0 -5 5 0 0. 9.
 15 1 1 2 0 0 -0.794623 0.383248 -4.58955 5 1.7768 0. -1
 -15 1 1 2 0 0 0.794623 -0.383248 4.58955 5 1.7768 0. 1
</event>
<event>
 4 80 1 -1 -1 -1
 11 -1 0 0 0 0 0 0 5 5 0 0. 9.
 -11 -1 0 0 0 0 0 0 -4.66919 4.66919 0 0. 9.
 15 1 1 2 0 0 1.36306 -0.303459 4.43853 4.98079 1.7768 0. 1
 -15 1 1 2 0 0 -1.36306 0.303459 -4.10771 4.6884 1.7768 0. -1
</event>
<event>
 4 80 1 -1 -1 -1
 11 -1 0 0 0 0 0 0 5 5 0 0. 9.
 -11 -1 0 0 0 0 0 0 -5 5 0 0. 9.
 15 1 1 2 0 0 -2.91223 2.92613 2.19065 5 1.7768 0. -1
 -15 1 1 2 0 0 2.91223 -2.92613 -2.19065 5 1.7768 0. 1
</event>
<event>
 4 80 1 -1 -1 -1
 11 -1 0 0 0 0 0 0 4.95 4.95 0 0. 9.
 -11 -1 0 0 0 0 0 0 -5 5 0 0. 9.
 15 1 1 2 0 0 0.606984 -4.11537 2.04567 4.9646 1.7768 0. -1
 -15 1 1 2 0 0 -0.606984 4.11537 -2.09566 4.98541 1.7768 0. 1
</event>
<event>
 4 80 1 -1 -1 -1
 11 -1 0 0 0 0 0 0 5 5 0 0. 9.
 -11 -1 0 0 0 0 0 0 -5 5 0 0. 9.
 15 1 1 2 0 0 2.81774 -3.25788 1.81352 5 1.7768 0. 1
 -15 1 1 2 0 0 -2.81774 3.25788 -1.81352 5 1.7768 0. -1
</event>
<event>
 4 80 1 -1 -1 -1
 11 -1 0 0 0 0 0 0 5 5 0 0. 9.
 -11 -1 0 0 0 0 0 0 -4.98328 4.98328 0 0. 9.
 15 1 1 2 0 0 1.72096 -0.270726 4.33545 4.99889 1.7768 0. -1
 -15 1 1 2 0 0 -1.72096 0.270726 -4.31873 4.98439 1.7768 0. 1
</event>
<event>
 4 80 1 -1 -1 -1
 11 -1 0 0 0 0 0 0 4.63539 4.63539 0 0. 9.
 -11 -1 0 0 0 0 0 0 -5 5 0 0. 9.
 15 1 1 2 0 0 -0.849431 1.74168 3.85348 4.66498 1.7768 0. 1
 -15 1 1 2 0 0 0.849431 -1.74168 -4.21809 4.97041 1.7768 0. -1
</event>
<event>
 4 80 1 -1 -1 -1
 11 -1 0 0 0 0 0 0 4.98794 4.98794 0 0. 9.
 -11 -1 0 0 0 0 0 0 -5 5 0 0. 9.
 15 1 1 2 0 0 0.800776 -2.00749 4.13049 4.98898 1.7768 0. -1
 -15 1 1 2 0 0 -0.800776 2.00749 -4.14254 4.99896 1.7768 0. 1
</event>
<event>
 4 80 1 -1 -1 -1
 11 -1 0 0 0 0 0 0 4.98925 4.98925 0 0. 9.
 -11 -1 0 0 0 0 0 0 -5 5 0 0. 9.
 15 1 1 2 0 0 -2.43866 0.645041 3.92214 4.9904 1.7768 0. -1
 -15 1 1 2 0 0 2.43866 -0.645041 -3.93289 4.99885 1.7768 0. 1
</event>
<event>
 4 80 1 -1 -1 -1
 11 -1 0 0 0 0 0 0 5 5 0 0. 9.
 -11 -1 0 0 0 0 0 0 -4.99993 4.99993 0 0. 9.
 15 1 1 2 0 0 -1.32504 2.37886 -3.79829 4.99994 1.7768 0. 1
 -15 1 1 2 0 0 1.32504 -2.37886 3.79835 4.99999 1.7768 0. -1
</event>
<event>
 4 80 1 -1 -1 -1
 11 -1 0 0 0 0 0 0 4.9957 4.9957 0 0. 9.
 -11 -1 0 0 0 0 0 0 -5 5 0 0. 9.
 15 1 1 2 0 0 -0.00329586 -2.33542 4.04342 4.99611 1.7768 0. 1
 -15 1 1 2 0 0 0.00329586 2.33542 -4.04771 4.99959 1.7768 0. -1
</event>
<event>
 4 80 1 -1 -1 -1
 11 -1 0 0 0 0 0 0 5 5 0 0. 9.
 -11 -1 0 0 0 0 0 0 -4.19315 4.19315 0 0. 9.
 15 1 1 2 0 0 3.30347 -0.189968 -2.2257 4.36583 1.7768 0. -1
 -15 1 1 2 0 0 -3.30347 0.189968 3.03255 4.82732 1.7768 0. 1
</event>
<event>
 4 80 1 -1 -1 -1
 11 -1 0 0 0 0 0 0 5 5 0 0. 9.
 -11 -1 0 0 0 0 0 0 -4.99988 4.99988 0 0. 9.
 15 1 1 2 0 0 1.10829 0.669101 4.49068 4.99999 1.7768 0. 1
 -15 1 1 2 0 0 -1.10829 -0.669101 -4.49056 4.99989 1.7768 0. -1
</event>
<event>
 4 80 1 -1 -1 -1
 11 -1 0 0 0 0 0 0 5 5 0 0. 9.
 -11 -1 0 0 0 0 0 0 -5 5 0 0. 9.
 15 1 1 2 0 0 -3.61087 1.39411 -2.61923 5 1.7768 0. 1
 -15 1 1 2 0 0 3.61087 -1.39411 2.61923 5 1.7768 0. -1
</event>
<event>
 4 80 1 -1 -1 -1
 11 -1 0 0 0 0 0 0 5 5 0 0. 9.
 -11 -1 0 0 0 0 0 0 -5 5 0 0. 9.
 15 1 1 2 0 0 -3.91008 1.77738 1.8424 5 1.7768 0. 1
 -15 1 1 2 0 0 3.91008 -1.77738 -1.8424 5 1.7768 0. -1
</event>
<event>
 4 80 1 -1 -1 -1
 11 -1 0 0 0 0 0 0 5 5 0 0. 9.
 -11 -1 0 0 0 0 0 0 -5 5 0 0. 9.
 15 1 1 2 0 0 -1.14519 -4.53102 -0.0262952 5 1.7768 0. -1
 -15 1 1 2 0 0 1.14519 4.53102 0.0262952 5 1.7768 0. 1
</event>
<event>
 4 80 1 -1 -1 -1
 11 -1 0 0 0 0 0 0 4.8426 4.8426 0 0. 9.
 -11 -1 0 0 0 0 0 0 -4.75153 4.75153 0 0. 9.
 15 1 1 2 0 0 2.55224 -3.52629 -0.904981 4.78804 1.7768 0. -1
 -15 1 1 2 0 0 -2.55224 3.52629 0.996056 4.80609 1.7768 0. 1
</event>
<event>
 4 80 1 -1 -1 -1
 11 -1 0 0 0 0 0 0 4.21925 4.21925 0 0. 9.
 -11 -1 0 0 0 0 0 0 -3.44618 3.44618 0 0. 9.
 15 1 1 2 0 0 -0.361158 -0.240021 3.7495 4.17187 1.7768 0. -1
 -15 1 1 2 0 0 0.361158 0.240021 -2.97643 3.49355 1.7768 0. 1
</event>
<event>
 4 80 1 -1 -1 -1
 11 -1 0 0 0 0 0 0 0.764138 0.764138 0 0. 9.
 -11 -1 0 0 0 0 0 0 -5 5 0 0. 9.
 15 1 1 2 0 0 0.250012 0.0965126 -3.25158 3.71515 1.7768 0. -1
 -15 1 1 2 0 0 -0.250012 -0.0965126 -0.984283 2.04899 1.7768 0. 1
</event>
<event>
 4 80 1 -1 -1 -1
 11 -1 0 0 0 0 0 0 5 5 0 0. 9.
 -11 -1 0 0 0 0 0 0 -5 5 0 0. 9.
 15 1 1 2 0 0 4.27282 -0.595837 -1.7973 5 1.7768 0. 1
 -15 1 1 2 0 0 -4.27282 0.595837 1.7973 5 1.7768 0. -1
</event>
<event>
 4 80 1 -1 -1 -1
 11 -1 0 0 0 0 0 0 4.99999 4.99999 0 0. 9.
 -11 -1 0 0 0 0 0 0 -5 5 0 0. 9.
 15 1 1 2 0 0 1.07938 -4.30594 -1.46153 5 1.7768 0. 1
 -15 1 1 2 0 0 -1.07938 4.30594 1.46152 4.99999 1.7768 0. -1
</event>
<event>
 4 80 1 -1 -1 -1
 11 -1 0 0 0 0 0 0 5 5 0 0. 9.
 -11 -1 0 0 0 0 0 0 -4.99971 4.99971 0 0. 9.
 15 1 1 2 0 0 -0.390338 -0.796073 -4.5884 4.99972 1.7768 0. 1
 -15 1 1 2 0 0 0.390338 0.796073 4.58869 4.99999 1.7768 0. -1
</event>
<event>
 4 80 1 -1 -1 -1
 11 -1 0 0 0 0 0 0 1.69225 1.69225 0 0. 9.
 -11 -1 0 0 0 0 0 0 -4.99648 4.99648 0 0. 9.
 15 1 1 2 0 0 -0.703139 -1.42361 0.264341 2.39764 1.7768 0. 1
 -15 1 1 2 0 0 0.703139 1.42361 -3.56857 4.29109 1.7768 0. -1
</event>
<event>
 4 80 1 -1 -1 -1
 11 -1 0 0 0 0 0 0 5 5 0 0. 9.
 -11 -1 0 0 0 0 0 0 -5 5 0 0. 9.
 15 1 1 2 0 0 -2.02455 -2.54706 3.35499 5 1.7768 0. 1
 -15 1 1 2 0 0 2.02455 2.54706 -3.35499 5 1.7768 0. -1
</event>
<event>
 4 80 1 -1 -1 -1
 11 -1 0 0 0 0 0 0 4.99994 4.99994 0 0. 9.
 -11 -1 0 0 0 0 0 0 -5 5 0 0. 9.
 15 1 1 2 0 0 -4.33392 1.74799 -0.0606877 4.99997 1.7768 0. -1
 -15 1 1 2 0 0 4.33392 -1.74799 0.0606282 4.99997 1.7768 0. 1
</event>
<event>
 4 80 1 -1 -1 -1
 11 -1 0 0 0 0 0 0 4.99998 4.99998 0 0. 9.
 -11 -1 0 0 0 0 0 0 -5 5 0 0. 9.
 15 1 1 2 0 0 -3.13531 -3.42305 -0.542838 4.99999 1.7768 0. 1
 -15 1 1 2 0 0 3.13531 3.42305 0.542814 4.99999 1.7768 0. -1
</event>
<event>
 4 80 1 -1 -1 -1
 11 -1 0 0 0 0 0 0 2.49228 2.49228 0 0. 9.
 -11 -1 0 0 0 0 0 0 -4.99958 4.99958 0 0. 9.
 15 1 1 2 0 0 0.67269 -1.63381 -3.8919 4.62887 1.7768 0. -1
 -15 1 1 2 0 0 -0.67269 1.63381 1.3846 2.86299 1.7768 0. 1
</event>
<event>
 4 80 1 -1 -1 -1
 11 -1 0 0 0 0 0 0 4.94941 4.94941 0 0. 9.
 -11 -1 0 0 0 0 0 0 -5 5 0 0. 9.
 15 1 1 2 0 0 0.355218 4.62512 -0.292455 4.97606 1.7768 0. -1
 -15 1 1 2 0 0 -0.355218 -4.62512 0.241867 4.97335 1.7768 0. 1
</event>
<event>
 4 80 1 -1 -1 -1
 11 -1 0 0 0 0 0 0 4.96153 4.96153 0 0. 9.
 -11 -1 0 0 0 0 0 0 -5 5 0 0. 9.
 15 1 1 2 0 0 -4.31592 0.658133 1.59 4.97455 1.7768 0. -1
 -15 1 1 2 0 0 4.31592 -0.658133 -1.62847 4.98698 1.7768 0. 1
</event>
<event>
 4 80 1 -1 -1 -1
 11 -1 0 0 0 0 0 0 4.99899 4.99899 0 0. 9.
 -11 -1 0 0 0 0 0 0 -3.84913 3.84913 0 0. 9.
 15 1 1 2 0 0 1.90644 2.68352 2.88542 4.72432 1.7768 0. -1
 -15 1 1 2 0 0 -1.90644 -2.68352 -1.73556 4.1238 1.7768 0. 1
</event>
<event>
 4 80 1 -1 -1 -1
 11 -1 0 0 0 0 0 0 4.99999 4.99999 0 0. 9.
 -11 -1 0 0 0 0 0 0 -5 5 0 0. 9.
 15 1 1 2 0 0 -2.3253 2.56317 3.14091 4.99999 1.7768 0. -1
 -15 1 1 2 0 0 2.3253 -2.56317 -3.14092 5 1.7768 0. 1
</event>
<event>
 4 80 1 -1 -1 -1
 11 -1 0 0 0 0 0 0 4.99978 4.99978 0 0. 9.
 -11 -1 0 0 0 0 0 0 -4.82598 4.82598 0 0. 9.
 15 1 1 2 0 0 4.42159 -1.06416 -0.449981 4.90338 1.7768 0. 1
 -15 1 1 2 0 0 -4.42159 1.06416 0.623781 4.92237 1.7768 0. -1
</event>
<event>
 4 80 1 -1 -1 -1
 11 -1 0 0 0 0 0 0 5 5 0 0. 9.
 -11 -1 0 0 0 0 0 0 -4.89416 4.89416 0 0. 9.
 15 1 1 2 0 0 -1.33518 -2.19761 3.88731 4.9881 1.7768 0. 1
 -15 1 1 2 0 0 1.33518 2.19761 -3.78147 4.90607 1.7768 0. -1
</event>
<event>
 4 80 1 -1 -1 -1
 11 -1 0 0 0 0 0 0 4.99994 4.99994 0 0. 9.
 -11 -1 0 0 0 0 0 0 -4.99795 4.99795 0 0. 9.
 15 1 1 2 0 0 -2.80769 2.45812 2.81279 4.9995 1.7768 0. 1
 -15 1 1 2 0 0 2.80769 -2.45812 -2.8108 4.99838 1.7768 0. -1
</event>
<event>
 4 80 1 -1 -1 -1
 11 -1 0 0 0 0 0 0 5 5 0 0. 9.
 -11 -1 0 0 0 0 0 0 -5 5 0 0. 9.
 15 1 1 2 0 0 -0.590552 -2.65138 -3.80312 5 1.7768 0. 1
 -15 1 1 2 0 0 0.590552 2.65138 3.80311 5 1.7768 0. -1
</event>
<event>
 4 80 1 -1 -1 -1
 11 -1 0 0 0 0 0 0 4.84607 4.84607 0 0. 9.
 -11 -1 0 0 0 0 0 0 -4.99997 4.99997 0 0. 9.
 15 1 1 2 0 0 3.07484 2.98957 1.56041 4.89743 1.7768 0. 1
 -15 1 1 2 0 0 -3.07484 -2.98957 -1.71432 4.94861 1.7768 0. -1
</event>
<event>
 4 80 1 -1 -1 -1
 11 -1 0 0 0 0 0 0 5 5 0 0. 9.
 -11 -1 0 0 0 0 0 0 -5 5 0 0. 9.
 15 1 1 2 0 0 -0.657342 3.88133 -2.51902 5 1.7768 0. -1
 -15 1 1 2 0 0 0.657342 -3.88133 2.51902 5 1.7768 0. 1
</event>
<event>
 4 80 1 -1 -1 -1
 11 -1 0 0 0 0 0 0 5 5 0 0. 9.
 -11 -1 0 0 0 0 0 0 -5 5 0 0. 9.
 15 1 1 2 0 0 2.73131 -1.32618 3.55295 5 1.7768 0. -1
 -15 1 1 2 0 0 -2.73131 1.32618 -3.55295 5 1.7768 0. 1
</event>
<event>
 4 80 1 -1 -1 -1
 11 -1 0 0 0 0 0 0 4.78695 4.78695 0 0. 9.
 -11 -1 0 0 0 0 0 0 -4.71323 4.71323 0 0. 9.
 15 1 1 2 0 0 -1.29087 -0.845432 -4.08918 4.71807 1.7768 0. 1
 -15 1 1 2 0 0 1.29087 0.845432 4.1629 4.78211 1.7768 0. -1
</event>
<event>
 4 80 1 -1 -1 -1
 11 -1 0 0 0 0 0 0 5 5 0 0. 9.
 -11 -1 0 0 0 0 0 0 -4.85126 4.85126 0 0. 9.
 15 1 1 2 0 0 -0.981945 -0.869761 4.4769 4.9921 1.7768 0. -1
 -15 1 1 2 0 0 0.981945 0.869761 -4.32817 4.85916 1.7768 0. 1
</event>
<event>
 4 80 1 -1 -1 -1
 11 -1 0 0 0 0 0 0 4.99825 4.99825 0 0. 9.
 -11 -1 0 0 0 0 0 0 -5 5 0 0. 9.
 15 1 1 2 0 0 -3.84276 2.57566 -0.658687 4.99924 1.7768 0. -1
 -15 1 1 2 0 0 3.84276 -2.57566 0.656941 4.99901 1.7768 0. 1
</event>
<event>
 4 80 1 -1 -1 -1
 11 -1 0 0 0 0 0 0 4.99876 4.99876 0 0. 9.
 -11 -1 0 0 0 0 0 0 -2.77572 2.77572 0 0. 9.
 15 1 1 2 0 0 2.4765 -1.01443 -0.856189 3.32459 1.7768 0. 1
 -15 1 1 2 0 0 -2.4765 1.01443 3.07924 4.44989 1.7768 0. -1
</event>
<event>
 4 80 1 -1 -1 -1
 11 -1 0 0 0 0 0 0 5 5 0 0. 9.
 -11 -1 0 0 0 0 0 0 -3.74758 3.74758 0 0. 9.
 15 1 1 2 0 0 2.04534 3.12185 1.92443 4.55966 1.7768 0. 1
 -15 1 1 2 0 0 -2.04534 -3.12185 -0.672009 4.18792 1.7768 0. -1
</event>
<event>
 4 80 1 -1 -1 -1
 11 -1 0 0 0 0 0 0 5 5 0 0. 9.
 -11 -1 0 0 0 0 0 0 -5 5 0 0. 9.
 15 1 1 2 0 0 3.23814 3.01595 -1.50357 5 1.7768 0. 1
 -15 1 1 2 0 0 -3.23814 -3.01595 1.50357 5 1.7768 0. -1
</event>
<event>
 4 80 1 -1 -1 -1
 11 -1 0 0 0 0 0 0 5 5 0 0. 9.
 -11 -1 0 0 0 0 0 0 -2.36918 2.36918 0 0. 9.
 15 1 1 2 0 0 1.40789 -1.14215 -1.17266 2.79634 1.7768 0. -1
 -15 1 1 2 0 0 -1.40789 1.14215 3.80348 4.57284 1.7768 0. 1
</event>
<event>
 4 80 1 -1 -1 -1
 11 -1 0 0 0 0 0 0 4.9571 4.9571 0 0. 9.
 -11 -1 0 0 0 0 0 0 -5 5 0 0. 9.
 15 1 1 2 0 0 -3.98097 0.88707 2.21301 4.96892 1.7768 0. -1
 -15 1 1 2 0 0 3.98097 -0.88707 -2.25591 4.98818 1.7768 0. 1
</event>
<event>
 4 80 1 -1 -1 -1
 11 -1 0 0 0 0 0 0 5 5 0 0. 9.
 -11 -1 0 0 0 0 0 0 -5 5 0 0. 9.
 15 1 1 2 0 0 -1.75247 -3.4218 -2.65752 5 1.7768 0. -1
 -15 1 1 2 0 0 1.75247 3.4218 2.65752 5 1.7768 0. 1
</event>
<event>
 4 80 1 -1 -1 -1
 11 -1 0 0 0 0 0 0 4.99999 4.99999 0 0. 9.
 -11 -1 0 0 0 0 0 0 -5 5 0 0. 9.
 15 1 1 2 0 0 3.4904 -0.517585 3.06454 4.99999 1.7768 0. 1
 -15 1 1 2 0 0 -3.4904 0.517585 -3.06455 5 1.7768 0. -1
</event>
<event>
 4 80 1 -1 -1 -1
 11 -1 0 0 0 0 0 0 5 5 0 0. 9.
 -11 -1 0 0 0 0 0 0 -5 5 0 0. 9.
 15 1 1 2 0 0 4.20641 2.02963 0.170301 5 1.7768 0. -1
 -15 1 1 2 0 0 -4.20641 -2.02963 -0.170301 5 1.7768 0. 1
</event>
<event>
 4 80 1 -1 -1 -1
 11 -1 0 0 0 0 0 0 4.99999 4.99999 0 0. 9.
 -11 -1 0 0 0 0 0 0 -5 5 0 0. 9.
 15 1 1 2 0 0 -0.947659 -0.451623 4.55414 4.99999 1.7768 0. -1
 -15 1 1 2 0 0 0.947659 0.451623 -4.55415 5 1.7768 0. 1
</event>
<event>
 4 80 1 -1 -1 -1
 11 -1 0 0 0 0 0 0 5 5 0 0. 9.
 -11 -1 0 0 0 0 0 0 -5 5 0 0. 9.
 15 1 1 2 0 0 1.58427 2.67833 -3.48696 5 1.7768 0. 1
 -15 1 1 2 0 0 -1.58427 -2.67833 3.48696 5 1.7768 0. -1
</event>
<event>
 4 80 1 -1 -1 -1
 11 -1 0 0 0 0 0 0 5 5 0 0. 9.
 -11 -1 0 0 0 0 0 0 -5 5 0 0. 9.
 15 1 1 2 0 0 0.473875 -1.66391 -4.34156 5 1.7768 0. -1
 -15 1 1 2 0 0 -0.473875 1.66391 4.34156 5 1.7768 0. 1
</event>
<event>
 4 80 1 -1 -1 -1
 11 -1 0 0 0 0 0 0 5 5 0 0. 9.
 -11 -1 0 0 0 0 0 0 -3.36259 3.36259 0 0. 9.
 15 1 1 2 0 0 -0.251584 -2.31275 3.74646 4.75455 1.7768 0. -1
 -15 1 1 2 0 0 0.251584 2.31275 -2.10905 3.60803 1.7768 0. 1
</event>
<event>
 4 80 1 -1 -1 -1
 11 -1 0 0 0 0 0 0 4.41408 4.41408 0 0. 9.
 -11 -1 0 0 0 0 0 0 -1.46199 1.46199 0 0. 9.
 15 1 1 2 0 0 -0.988318 1.06091 0.212646 2.30331 1.7768 0. 1
 -15 1 1 2 0 0 0.988318 -1.06091 2.73945 3.57276 1.7768 0. -1
</event>
<event>
 4 80 1 -1 -1 -1
 11 -1 0 0 0 0 0 0 5 5 0 0. 9.
 -11 -1 0 0 0 0 0 0 -5 5 0 0. 9.
 15 1 1 2 0 0 -2.63375 3.84189 0.381437 5 1.7768 0. -1
 -15 1 1 2 0 0 2.63375 -3.84189 -0.381437 5 1.7768 0. 1
</event>
<event>
 4 80 1 -1 -1 -1
 11 -1 0 0 0 0 0 0 4.99991 4.99991 0 0. 9.
 -11 -1 0 0 0 0 0 0 -5 5 0 0. 9.
 15 1 1 2 0 0 4.31854 1.71775 -0.491317 4.99996 1.7768 0. -1
 -15 1 1 2 0 0 -4.31854 -1.71775 0.491227 4.99995 1.7768 0. 1
</event>
<event>
 4 80 1 -1 -1 -1
 11 -1 0 0 0 0 0 0 4.95618 4.95618 0 0. 9.
 -11 -1 0 0 0 0 0 0 -5 5 0 0. 9.
 15 1 1 2 0 0 -2.8765 0.882867 3.52346 4.96248 1.7768 0. -1
 -15 1 1 2 0 0 2.8765 -0.882867 -3.56728 4.99369 1.7768 0. 1
</event>
<event>
 4 80 1 -1 -1 -1
 11 -1 0 0 0 0 0 0 5 5 0 0. 9.
 -11 -1 0 0 0 0 0 0 -5 5 0 0. 9.
 15 1 1 2 0 0 -0.722228 1.11199 4.48153 5 1.7768 0. 1
 -15 1 1 2 0 0 0.722228 -1.11199 -4.48153 5 1.7768 0. -1
</event>
<event>
 4 80 1 -1 -1 -1
 11 -1 0 0 0 0 0 0 5 5 0 0. 9.
 -11 -1 0 0 0 0 0 0 -4.98296 4.98296 0 0. 9.
 15 1 1 2 0 0 4.28275 -1.77179 0.533756 4.99238 1.7768 0. 1
 -15 1 1 2 0 0 -4.28275 1.77179 -0.516721 4.99059 1.7768 0. -1
</event>
<event>
 4 80 1 -1 -1 -1
 11 -1 0 0 0 0 0 0 4.99941 4.99941 0 0. 9.
 -11 -1 0 0 0 0 0 0 -4.99976 4.99976 0 0. 9.
 15 1 1 2 0 0 -2.35413 -1.88758 3.56818 4.99946 1.7768 0. 1
 -15 1 1 2 0 0 2.35413 1.88758 -3.56854 4.99971 1.7768 0. -1
</event>
<event>
 4 80 1 -1 -1 -1
 11 -1 0 0 0 0 0 0 5 5 0 0. 9.
 -11 -1 0 0 0 0 0 0 -4.99997 4.99997 0 0. 9.
 15 1 1 2 0 0 -0.372626 -4.50456 -1.18834 4.99998 1.7768 0. -1
 -15 1 1 2 0 0 0.372626 4.50456 1.18837 4.99999 1.7768 0. 1
</event>
<event>
 4 80 1 -1 -1 -1
 11 -1 0 0 0 0 0 0 4.99926 4.99926 0 0. 9.
 -11 -1 0 0 0 0 0 0 -4.80407 4.80407 0 0. 9.
 15 1 1 2 0 0 -2.04547 2.06791 3.6195 4.97179 1.7768 0. 1
 -15 1 1 2 0 0 2.04547 -2.06791 -3.42431 4.83154 1.7768 0. -1
</event>
<event>
 4 80 1 -1 -1 -1
 11 -1 0 0 0 0 0 0 5 5 0 0. 9.
 -11 -1 0 0 0 0 0 0 -3.30211 3.30211 0 0. 9.
 15 1 1 2 0 0 -0.0818857 -3.14104 -1.0568 3.7613 1.7768 0. 1
 -15 1 1 2 0 0 0.0818857 3.14104 2.75469 4.5408 1.7768 0. -1
</event>
<event>
 4 80 1 -1 -1 -1
 11 -1 0 0 0 0 0 0 5 5 0 0. 9.
 -11 -1 0 0 0 0 0 0 -4.84754 4.84754 0 0. 9.
 15 1 1 2 0 0 -1.32907 1.5827 -4.0241 4.86029 1.7768 0. -1
 -15 1 1 2 0 0 1.32907 -1.5827 4.17655 4.98725 1.7768 0. 1
</event>
<event>
 4 80 1 -1 -1 -1
 11 -1 0 0 0 0 0 0 4.99999 4.99999 0 0. 9.
 -11 -1 0 0 0 0 0 0 -5 5 0 0. 9.
 15 1 1 2 0 0 3.97526 -1.0077 2.24144 5 1.7768 0. 1
 -15 1 1 2 0 0 -3.97526 1.0077 -2.24144 5 1.7768 0. -1
</event>
<event>
 4 80 1 -1 -1 -1
 11 -1 0 0 0 0 0 0 4.99999 4.99999 0 0. 9.
 -11 -1 0 0 0 0 0 0 -5 5 0 0. 9.
 15 1 1 2 0 0 -0.62133 3.49635 3.03837 4.99999 1.7768 0. -1
 -15 1 1 2 0 0 0.62133 -3.49635 -3.03837 5 1.7768 0. 1
</event>
<event>
 4 80 1 -1 -1 -1
 11 -1 0 0 0 0 0 0 4.99811 4.99811 0 0. 9.
 -11 -1 0 0 0 0 0 0 -5 5 0 0. 9.
 15 1 1 2 0 0 -1.87436 -3.61201 -2.29724 4.99949 1.7768 0. 1
 -15 1 1 2 0 0 1.87436 3.61201 2.29535 4.99862 1.7768 0. -1
</event>
<event>
 4 80 1 -1 -1 -1
 11 -1 0 0 0 0 0 0 5 5 0 0. 9.
 -11 -1 0 0 0 0 0 0 -5 5 0 0. 9.
 15 1 1 2 0 0 1.61088 -2.9455 3.25136 5 1.7768 0. 1
 -15 1 1 2 0 0 -1.61088 2.9455 -3.25136 5 1.7768 0. -1
</event>
<event>
 4 80 1 -1 -1 -1
 11 -1 0 0 0 0 0 0 5 5 0 0. 9.
 -11 -1 0 0 0 0 0 0 -4.99285 4.99285 0 0. 9.
 15 1 1 2 0 0 -3.19196 -3.37992 -0.436944 4.99611 1.7768 0. -1
 -15 1 1 2 0 0 3.19196 3.37992 0.444094 4.99674 1.7768 0. 1
</event>
<event>
 4 80 1 -1 -1 -1
 11 -1 0 0 0 0 0 0 4.83062 4.83062 0 0. 9.
 -11 -1 0 0 0 0 0 0 -5 5 0 0. 9.
 15 1 1 2 0 0 0.372054 0.190672 -4.64833 4.99394 1.7768 0. -1
 -15 1 1 2 0 0 -0.372054 -0.190672 4.47895 4.83668 1.7768 0. 1
</event>
<event>
 4 80 1 -1 -1 -1
 11 -1 0 0 0 0 0 0 5 5 0 0. 9.
 -11 -1 0 0 0 0 0 0 -5 5 0 0. 9.
 15 1 1 2 0 0 -1.17171 2.90932 3.46485 5 1.7768 0. 1
 -15 1 1 2 0 0 1.17171 -2.90932 -3.46485 5 1.7768 0. -1
</event>
<event>
 4 80 1 -1 -1 -1
 11 -1 0 0 0 0 0 0 4.99946 4.99946 0 0. 9.
 -11 -1 0 0 0 0 0 0 -2.89811 2.89811 0 0. 9.
 15 1 1 2 0 0 1.22133 0.0384909 -2.2032 3.08301 1.7768 0. -1
 -15 1 1 2 0 0 -1.22133 -0.0384909 4.30455 4.81456 1.7768 0. 1
</event>
<event>
 4 80 1 -1 -1 -1
 11 -1 0 0 0 0 0 0 4.99951 4.99951 0 0. 9.
 -11 -1 0 0 0 0 0 0 -5 5 0 0. 9.
 15 1 1 2 0 0 -0.262171 -0.745007 4.60585 4.99953 1.7768 0. 1
 -15 1 1 2 0 0 0.262171 0.745007 -4.60633 4.99998 1.7768 0. -1
</event>
<event>
 4 80 1 -1 -1 -1
 11 -1 0 0 0 0 0 0 4.99991 4.99991 0 0. 9.
 -11 -1 0 0 0 0 0 0 -5 5 0 0. 9.
 15 1 1 2 0 0 -1.28932 4.48834 0.185043 4.99996 1.7768 0. 1
 -15 1 1 2 0 0 1.28932 -4.48834 -0.18513 4.99996 1.7768 0. -1
</event>
<event>
 4 80 1 -1 -1 -1
 11 -1 0 0 0 0 0 0 4.70201 4.70201 0 0. 9.
 -11 -1 0 0 0 0 0 0 -5 5 0 0. 9.
 15 1 1 2 0 0 4.02527 1.29941 -1.71852 4.89921 1.7768 0. -1
 -15 1 1 2 0 0 -4.02527 -1.29941 1.42054 4.8028 1.7768 0. 1
</event>
<event>
 4 80 1 -1 -1 -1
 11 -1 0 0 0 0 0 0 5 5 0 0. 9.
 -11 -1 0 0 0 0 0 0 -5 5 0 0. 9.
 15 1 1 2 0 0 -1.1962 -4.51713 0.0833588 5 1.7768 0. -1
 -15 1 1 2 0 0 1.1962 4.51713 -0.0833588 5 1.7768 0. 1
</event>
<event>
 4 80 1 -1 -1 -1
 11 -1 0 0 0 0 0 0 5 5 0 0. 9.
 -11 -1 0 0 0 0 0 0 -5 5 0 0. 9.
 15 1 1 2 0 0 -2.14234 2.42572 3.37173 5 1.7768 0. 1
 -15 1 1 2 0 0 2.14234 -2.42572 -3.37173 5 1.7768 0. -1
</event>
<event>
 4 80 1 -1 -1 -1
 11 -1 0 0 0 0 0 0 5 5 0 0. 9.
 -11 -1 0 0 0 0 0 0 -5 5 0 0. 9.
 15 1 1 2 0 0 4.17527 0.0439042 -2.09939 5 1.7768 0. -1
 -15 1 1 2 0 0 -4.17527 -0.0439042 2.09939 5 1.7768 0. 1
</event>
<event>
 4 80 1 -1 -1 -1
 11 -1 0 0 0 0 0 0 1.46441 1.46441 0 0. 9.
 -11 -1 0 0 0 0 0 0 -5 5 0 0. 9.
 15 1 1 2 0 0 -0.538456 -0.517215 -4.03635 4.47295 1.7768 0. 1
 -15 1 1 2 0 0 0.538456 0.517215 0.500761 1.99147 1.7768 0. -1
</event>
<event>
 4 80 1 -1 -1 -1
 11 -1 0 0 0 0 0 0 3.34636 3.34636 0 0. 9.
 -11 -1 0 0 0 0 0 0 -5 5 0 0. 9.
 15 1 1 2 0 0 -3.08722 2.00333 -0.650627 4.13827 1.7768 0. -1
 -15 1 1 2 0 0 3.08722 -2.00333 -1.00301 4.20809 1.7768 0. 1
</event>
<event>
 4 80 1 -1 -1 -1
 11 -1 0 0 0 0 0 0 5 5 0 0. 9.
 -11 -1 0 0 0 0 0 0 -5 5 0 0. 9.
 15 1 1 2 0 0 -2.43726 -3.45478 -1.99162 5 1.7768 0. -1
 -15 1 1 2 0 0 2.43726 3.45478 1.99162 5 1.7768 0. 1
</event>
<event>
 4 80 1 -1 -1 -1
 11 -1 0 0 0 0 0 0 5 5 0 0. 9.
 -11 -1 0 0 0 0 0 0 -5 5 0 0. 9.
 15 1 1 2 0 0 4.2827 -1.74714 0.669504 5 1.7768 0. -1
 -15 1 1 2 0 0 -4.2827 1.74714 -0.669504 5 1.7768 0. 1
</event>
<event>
 4 80 1 -1 -1 -1
 11 -1 0 0 0 0 0 0 4.99986 4.99986 0 0. 9.
 -11 -1 0 0 0 0 0 0 -5 5 0 0. 9.
 15 1 1 2 0 0 4.26539 1.89247 -0.258161 4.99994 1.7768 0. -1
 -15 1 1 2 0 0 -4.26539 -1.89247 0.258024 4.99993 1.7768 0. 1
</event>
<event>
 4 80 1 -1 -1 -1
 11 -1 0 0 0 0 0 0 5 5 0 0. 9.
 -11 -1 0 0 0 0 0 0 -5 5 0 0. 9.
 15 1 1 2 0 0 1.09795 4.3551 -1.29223 5 1.7768 0. -1
 -15 1 1 2 0 0 -1.09795 -4.3551 1.29223 5 1.7768 0. 1
</event>
<event>
 4 80 1 -1 -1 -1
 11 -1 0 0 0 0 0 0 4.99777 4.99777 0 0. 9.
 -11 -1 0 0 0 0 0 0 -4.99942 4.99942 0 0. 9.
 15 1 1 2 0 0 -0.157688 -4.59383 0.835903 4.99846 1.7768 0. -1
 -15 1 1 2 0 0 0.157688 4.59383 -0.837552 4.99873 1.7768 0. 1
</event>
<event>
 4 80 1 -1 -1 -1
 11 -1 0 0 0 0 0 0 4.99575 4.99575 0 0. 9.
 -11 -1 0 0 0 0 0 0 -5 5 0 0. 9.
 15 1 1 2 0 0 -1.85306 2.19187 3.68338 4.99631 1.7768 0. 1
 -15 1 1 2 0 0 1.85306 -2.19187 -3.68762 4.99944 1.7768 0. -1
</event>
<event>
 4 80 1 -1 -1 -1
 11 -1 0 0 0 0 0 0 5 5 0 0. 9.
 -11 -1 0 0 0 0 0 0 -4.99998 4.99998 0 0. 9.
 15 1 1 2 0 0 0.523936 0.306796 -4.63395 4.99998 1.7768 0. 1
 -15 1 1 2 0 0 -0.523936 -0.306796 4.63396 5 1.7768 0. -1
</event>
<event>
 4 80 1 -1 -1 -1
 11 -1 0 0 0 0 0 0 5 5 0 0. 9.
 -11 -1 0 0 0 0 0 0 -3.49937 3.49937 0 0. 9.
 15 1 1 2 0 0 -2.69305 0.339525 3.43279 4.7233 1.7768 0. 1
 -15 1 1 2 0 0 2.69305 -0.339525 -1.93216 3.77607 1.7768 0. -1
</event>
<event>
 4 80 1 -1 -1 -1
 11 -1 0 0 0 0 0 0 5 5 0 0. 9.
 -11 -1 0 0 0 0 0 0 -5 5 0 0. 9.
 15 1 1 2 0 0 0.749654 -3.1357 3.38344 5 1.7768 0. -1
 -15 1 1 2 0 0 -0.749654 3.1357 -3.38344 5 1.7768 0. 1
</event>
<event>
 4 80 1 -1 -1 -1
 11 -1 0 0 0 0 0 0 4.99956 4.99956 0 0. 9.
 -11 -1 0 0 0 0 0 0 -5 5 0 0. 9.
 15 1 1 2 0 0 -0.0306834 4.66279 0.312063 4.99977 1.7768 0. -1
 -15 1 1 2 0 0 0.0306834 -4.66279 -0.312502 4.99979 1.7768 0. 1
</event>
<event>
 4 80 1 -1 -1 -1
 11 -1 0 0 0 0 0 0 5 5 0 0. 9.
 -11 -1 0 0 0 0 0 0 -5 5 0 0. 9.
 15 1 1 2 0 0 -2.85478 3.08547 2.04263 5 1.7768 0. -1
 -15 1 1 2 0 0 2.85478 -3.08547 -2.04263 5 1.7768 0. 1
</event>
<event>
 4 80 1 -1 -1 -1
 11 -1 0 0 0 0 0 0 4.99934 4.99934 0 0. 9.
 -11 -1 0 0 0 0 0 0 -4.99994 4.99994 0 0. 9.
 15 1 1 2 0 0 -1.5024 0.771236 -4.35766 4.9999 1.7768 0. 1
 -15 1 1 2 0 0 1.5024 -0.771236 4.35707 4.99938 1.7768 0. -1
</event>
<event>
 4 80 1 -1 -1 -1
 11 -1 0 0 0 0 0 0 4.98021 4.98021 0 0. 9.
 -11 -1 0 0 0 0 0 0 -5 5 0 0. 9.
 15 1 1 2 0 0 -3.53893 0.123611 3.02393 4.98409 1.7768 0. 1
 -15 1 1 2 0 0 3.53893 -0.123611 -3.04372 4.99612 1.7768 0. -1
</event>
<event>
 4 80 1 -1 -1 -1
 11 -1 0 0 0 0 0 0 5 5 0 0. 9.
 -11 -1 0 0 0 0 0 0 -5 5 0 0. 9.
 15 1 1 2 0 0 3.65137 2.022 -2.10268 5 1.7768 0. 1
 -15 1 1 2 0 0 -3.65137 -2.022 2.10268 5 1.7768 0. -1
</event>
<event>
 4 80 1 -1 -1 -1
 11 -1 0 0 0 0 0 0 2.92978 2.92978 0 0. 9.
 -11 -1 0 0 0 0 0 0 -4.99885 4.99885 0 0. 9.
 15 1 1 2 0 0 1.01863 -0.649763 2.24584 3.10827 1.7768 0. -1
 -15 1 1 2 0 0 -1.01863 0.649763 -4.31491 4.82037 1.7768 0. 1
</event>
<event>
 4 80 1 -1 -1 -1
 11 -1 0 0 0 0 0 0 4.99996 4.99996 0 0. 9.
 -11 -1 0 0 0 0 0 0 -4.82138 4.82138 0 0. 9.
 15 1 1 2 0 0 -0.367517 -1.3953 4.43363 4.98966 1.7768 0. 1
 -15 1 1 2 0 0 0.367517 1.3953 -4.25505 4.83168 1.7768 0. -1
</event>
<event>
 4 80 1 -1 -1 -1
 11 -1 0 0 0 0 0 0 4.95199 4.95199 0 0. 9.
 -11 -1 0 0 0 0 0 0 -5 5 0 0. 9.
 15 1 1 2 0 0 3.12426 0.62816 3.35932 4.95967 1.7768 0. 1
 -15 1 1 2 0 0 -3.12426 -0.62816 -3.40734 4.99232 1.7768 0. -1
</event>
<event>
 4 80 1 -1 -1 -1
 11 -1 0 0 0 0 0 0 5 5 0 0. 9.
 -11 -1 0 0 0 0 0 0 -4.57405 4.57405 0 0. 9.
 15 1 1 2 0 0 -1.53129 0.146489 -3.95604 4.60155 1.7768 0. 1
 -15 1 1 2 0 0 1.53129 -0.146489 4.38198 4.9725 1.7768 0. -1
</event>
<event>
 4 80 1 -1 -1 -1
 11 -1 0 0 0 0 0 0 5 5 0 0. 9.
 -11 -1 0 0 0 0 0 0 -5 5 0 0. 9.
 15 1 1 2 0 0 -1.0412 -4.13193 1.91972 5 1.7768 0. -1
 -15 1 1 2 0 0 1.0412 4.13193 -1.91972 5 1.7768 0. 1
</event>
<event>
 4 80 1 -1 -1 -1
 11 -1 0 0 0 0 0 0 5 5 0 0. 9.
 -11 -1 0 0 0 0 0 0 -5 5 0 0. 9.
 15 1 1 2 0 0 0.39808 -3.36849 3.21513 5 1.7768 0. -1
 -15 1 1 2 0 0 -0.39808 3.36849 -3.21513 5 1.7768 0. 1
</event>
<event>
 4 80 1 -1 -1 -1
 11 -1 0 0 0 0 0 0 3.35225 3.35225 0 0. 9.
 -11 -1 0 0 0 0 0 0 -5 5 0 0. 9.
 15 1 1 2 0 0 0.0481534 -1.6529 2.53905 3.51268 1.7768 0. 1
 -15 1 1 2 0 0 -0.0481534 1.6529 -4.1868 4.83957 1.7768 0. -1
</event>
<event>
 4 80 1 -1 -1 -1
 11 -1 0 0 0 0 0 0 5 5 0 0. 9.
 -11 -1 0 0 0 0 0 0 -5 5 0 0. 9.
 15 1 1 2 0 0 -0.641282 -2.96808 -3.55268 5 1.7768 0. -1
 -15 1 1 2 0 0 0.641282 2.96808 3.55268 5 1.7768 0. 1
</event>
<event>
 4 80 1 -1 -1 -1
 11 -1 0 0 0 0 0 0 5 5 0 0. 9.
 -11 -1 0 0 0 0 0 0 -5 5 0 0. 9.
 15 1 1 2 0 0 -0.212207 -0.961005 4.56878 5 1.7768 0. 1
 -15 1 1 2 0 0 0.212207 0.961005 -4.56878 5 1.7768 0. -1
</event>
<event>
 4 80 1 -1 -1 -1
 11 -1 0 0 0 0 0 0 4.93112 4.93112 0 0. 9.
 -11 -1 0 0 0 0 0 0 -4.92623 4.92623 0 0. 9.
 15 1 1 2 0 0 1.15806 3.71287 2.45348 4.92989 1.7768 0. -1
 -15 1 1 2 0 0 -1.15806 -3.71287 -2.44859 4.92746 1.7768 0. 1
</event>
<event>
 4 80 1 -1 -1 -1
 11 -1 0 0 0 0 0 0 5 5 0 0. 9.
 -11 -1 0 0 0 0 0 0 -5 5 0 0. 9.
 15 1 1 2 0 0 2.58883 3.69468 1.22047 5 1.7768 0. 1
 -15 1 1 2 0 0 -2.58883 -3.69468 -1.22047 5 1.7768 0. -1
</event>
<event>
 4 80 1 -1 -1 -1
 11 -1 0 0 0 0 0 0 4.97888 4.97888 0 0. 9.
 -11 -1 0 0 0 0 0 0 -4.99733 4.99733 0 0. 9.
 15 1 1 2 0 0 -3.97442 -2.35452 -0.628554 4.98925 1.7768 0. -1
 -15 1 1 2 0 0 3.97442 2.35452 0.610095 4.98696 1.7768 0. 1
</event>
<event>
 4 80 1 -1 -1 -1
 11 -1 0 0 0 0 0 0 5 5 0 0. 9.
 -11 -1 0 0 0 0 0 0 -4.99975 4.99975 0 0. 9.
 15 1 1 2 0 0 -4.18133 -2.06706 -0.291059 4.99987 1.7768 0. -1
 -15 1 1 2 0 0 4.18133 2.06706 0.291309 4.99988 1.7768 0. 1
</event>
<event>
 4 80 1 -1 -1 -1
 11 -1 0 0 0 0 0 0 5 5 0 0. 9.
 -11 -1 0 0 0 0 0 0 -4.74993 4.74993 0 0. 9.
 15 1 1 2 0 0 -4.20436 0.590823 -1.47744 4.83386 1.7768 0. 1
 -15 1 1 2 0 0 4.20436 -0.590823 1.72751 4.91607 1.7768 0. -1
</event>
<event>
 4 80 1 -1 -1 -1
 11 -1 0 0 0 0 0 0 4.96039 4.96039 0 0. 9.
 -11 -1 0 0 0 0 0 0 -4.99902 4.99902 0 0. 9.
 15 1 1 2 0 0 -0.555574 -3.22666 3.28516 4.96689 1.7768 0. 1
 -15 1 1 2 0 0 0.555574 3.22666 -3.32378 4.99252 1.7768 0. -1
</event>
<event>
 4 80 1 -1 -1 -1
 11 -1 0 0 0 0 0 0 5 5 0 0. 9.
 -11 -1 0 0 0 0 0 0 -4.99995 4.99995 0 0. 9.
 15 1 1 2 0 0 2.93312 -0.610387 -3.58694 4.99996 1.7768 0. 1
 -15 1 1 2 0 0 -2.93312 0.610387 3.58698 4.99999 1.7768 0. -1
</event>
<event>
 4 80 1 -1 -1 -1
 11 -1 0 0 0 0 0 0 4.99998 4.99998 0 0. 9.
 -11 -1 0 0 0 0 0 0 -4.99663 4.99663 0 0. 9.
 15 1 1 2 0 0 -0.788735 1.01521 -4.48971 4.9968 1.7768 0. 1
 -15 1 1 2 0 0 0.788735 -1.01521 4.49307 4.99981 1.7768 0. -1
</event>
<event>
 4 80 1 -1 -1 -1
 11 -1 0 0 0 0 0 0 5 5 0 0. 9.
 -11 -1 0 0 0 0 0 0 -5 5 0 0. 9.
 15 1 1 2 0 0 -0.911246 4.40575 1.26541 5 1.7768 0. 1
 -15 1 1 2 0 0 0.911246 -4.40575 -1.26541 5 1.7768 0. -1
</event>
<event>
 4 80 1 -1 -1 -1
 11 -1 0 0 0 0 0 0 5 5 0 0. 9.
 -11 -1 0 0 0 0 0 0 -4.99985 4.99985 0 0. 9.
 15 1 1 2 0 0 3.36328 2.45477 -2.12218 4.9999 1.7768 0. -1
 -15 1 1 2 0 0 -3.36328 -2.45477 2.12233 4.99996 1.7768 0. 1
</event>
<event>
 4 80 1 -1 -1 -1
 11 -1 0 0 0 0 0 0 5 5 0 0. 9.
 -11 -1 0 0 0 0 0 0 -4.99959 4.99959 0 0. 9.
 15 1 1 2 0 0 -1.26372 -2.63903 3.64421 4.99994 1.7768 0. -1
 -15 1 1 2 0 0 1.26372 2.63903 -3.6438 4.99964 1.7768 0. 1
</event>
<event>
 4 80 1 -1 -1 -1
 11 -1 0 0 0 0 0 0 0.96756 0.96756 0 0. 9.
 -11 -1 0 0 0 0 0 0 -4.95359 4.95359 0 0. 9.
 15 1 1 2 0 0 0.220084 -0.731732 -3.37958 3.89399 1.7768 0. 1
 -15 1 1 2 0 0 -0.220084 0.731732 -0.60645 2.02716 1.7768 0. -1
</event>
<event>
 4 80 1 -1 -1 -1
 11 -1 0 0 0 0 0 0 3.5193 3.5193 0 0. 9.
 -11 -1 0 0 0 0 0 0 -5 5 0 0. 9.
 15 1 1 2 0 0 0.390938 0.0768104 3.09695 3.59271 1.7768 0. 1
 -15 1 1 2 0 0 -0.390938 -0.0768104 -4.57765 4.92659 1.7768 0. -1
</event>
<event>
 4 80 1 -1 -1 -1
 11 -1 0 0 0 0 0 0 4.85997 4.85997 0 0. 9.
 -11 -1 0 0 0 0 0 0 -5 5 0 0. 9.
 15 1 1 2 0 0 -3.35413 2.87191 -1.35234 4.9482 1.7768 0. 1
 -15 1 1 2 0 0 3.35413 -2.87191 1.21231 4.91177 1.7768 0. -1
</event>
<event>
 4 80 1 -1 -1 -1
 11 -1 0 0 0 0 0 0 5 5 0 0. 9.
 -11 -1 0 0 0 0 0 0 -5 5 0 0. 9.
 15 1 1 2 0 0 -3.05756 -3.35526 -1.11166 5 1.7768 0. -1
 -15 1 1 2 0 0 3.05756 3.35526 1.11166 5 1.7768 0. 1
</event>
<event>
 4 80 1 -1 -1 -1
 11 -1 0 0 0 0 0 0 4.99997 4.99997 0 0. 9.
 -11 -1 0 0 0 0 0 0 -1.76745 1.76745 0 0. 9.
 15 1 1 2 0 0 -0.651471 -1.32924 3.74212 4.39915 1.7768 0. 1
 -15 1 1 2 0 0 0.651471 1.32924 -0.509599 2.36827 1.7768 0. -1
</event>
<event>
 4 80 1 -1 -1 -1
 11 -1 0 0 0 0 0 0 4.99983 4.99983 0 0. 9.
 -11 -1 0 0 0 0 0 0 -5 5 0 0. 9.
 15 1 1 2 0 0 -2.83376 2.08625 -3.0756 4.99997 1.7768 0. 1
 -15 1 1 2 0 0 2.83376 -2.08625 3.07543 4.99986 1.7768 0. -1
</event>
<event>
 4 80 1 -1 -1 -1
 11 -1 0 0 0 0 0 0 5 5 0 0. 9.
 -11 -1 0 0 0 0 0 0 -4.99961 4.99961 0 0. 9.
 15 1 1 2 0 0 -2.35422 -2.08627 -3.45602 4.99967 1.7768 0. -1
 -15 1 1 2 0 0 2.35422 2.08627 3.45641 4.99994 1.7768 0. 1
</event>
<event>
 4 80 1 -1 -1 -1
 11 -1 0 0 0 0 0 0 4.99611 4.99611 0 0. 9.
 -11 -1 0 0 0 0 0 0 -5 5 0 0. 9.
 15 1 1 2 0 0 0.666423 4.37104 -1.5095 4.99864 1.7768 0. 1
 -15 1 1 2 0 0 -0.666423 -4.37104 1.50561 4.99747 1.7768 0. -1
</event>
<event>
 4 80 1 -1 -1 -1
 11 -1 0 0 0 0 0 0 5 5 0 0. 9.
 -11 -1 0 0 0 0 0 0 -4.99994 4.99994 0 0. 9.
 15 1 1 2 0 0 -0.827203 -2.40824 3.91897 4.99999 1.7768 0. 1
 -15 1 1 2 0 0 0.827203 2.40824 -3.9189 4.99994 1.7768 0. -1
</event>
<event>
 4 80 1 -1 -1 -1
 11 -1 0 0 0 0 0 0 5 5 0 0. 9.
 -11 -1 0 0 0 0 0 0 -5 5 0 0. 9.
 15 1 1 2 0 0 1.60853 -3.62289 -2.4758 5 1.7768 0. 1
 -15 1 1 2 0 0 -1.60853 3.62289 2.4758 5 1.7768 0. -1
</event>
<event>
 4 80 1 -1 -1 -1
 11 -1 0 0 0 0 0 0 5 5 0 0. 9.
 -11 -1 0 0 0 0 0 0 -5 5 0 0. 9.
 15 1 1 2 0 0 -2.70002 0.0414731 3.81451 5 1.7768 0. 1
 -15 1 1 2 0 0 2.70002 -0.0414731 -3.81451 5 1.7768 0. -1
</event>
<event>
 4 80 1 -1 -1 -1
 11 -1 0 0 0 0 0 0 5 5 0 0. 9.
 -11 -1 0 0 0 0 0 0 -5 5 0 0. 9.
 15 1 1 2 0 0 1.46918 -1.3787 -4.21699 5 1.7768 0. 1
 -15 1 1 2 0 0 -1.46918 1.3787 4.21699 5 1.7768 0. -1
</event>
<event>
 4 80 1 -1 -1 -1
 11 -1 0 0 0 0 0 0 4.77179 4.77179 0 0. 9.
 -11 -1 0 0 0 0 0 0 -5 5 0 0. 9.
 15 1 1 2 0 0 4.51969 0.522407 -0.141882 4.88655 1.7768 0. 1
 -15 1 1 2 0 0 -4.51969 -0.522407 -0.0863232 4.88525 1.7768 0. -1
</event>
<event>
 4 80 1 -1 -1 -1
 11 -1 0 0 0 0 0 0 5 5 0 0. 9.
 -11 -1 0 0 0 0 0 0 -5 5 0 0. 9.
 15 1 1 2 0 0 2.92835 2.37721 2.7597 5 1.7768 0. 1
 -15 1 1 2 0 0 -2.92835 -2.37721 -2.7597 5 1.7768 0. -1
</event>
<event>
 4 80 1 -1 -1 -1
 11 -1 0 0 0 0 0 0 5 5 0 0. 9.
 -11 -1 0 0 0 0 0 0 -5 5 0 0. 9.
 15 1 1 2 0 0 -0.633658 -1.07727 -4.50336 5 1.7768 0. 1
 -15 1 1 2 0 0 0.633658 1.07727 4.50336 5 1.7768 0. -1
</event>
<event>
 4 80 1 -1 -1 -1
 11 -1 0 0 0 0 0 0 4.99802 4.99802 0 0. 9.
 -11 -1 0 0 0 0 0 0 -4.99021 4.99021 0 0. 9.
 15 1 1 2 0 0 0.730452 0.311855 4.60311 4.99771 1.7768 0. 1
 -15 1 1 2 0 0 -0.730452 -0.311855 -4.5953 4.99052 1.7768 0. -1
</event>
<event>
 4 80 1 -1 -1 -1
 11 -1 0 0 0 0 0 0 5 5 0 0. 9.
 -11 -1 0 0 0 0 0 0 -5 5 0 0. 9.
 15 1 1 2 0 0 -1.17065 -3.80345 -2.45063 5 1.7768 0. 1
 -15 1 1 2 0 0 1.17065 3.80345 2.45063 5 1.7768 0. -1
</event>
<event>
 4 80 1 -1 -1 -1
 11 -1 0 0 0 0 0 0 4.99995 4.99995 0 0. 9.
 -11 -1 0 0 0 0 0 0 -5 5 0 0. 9.
 15 1 1 2 0 0 1.09709 -4.51456 0.507123 4.99997 1.7768 0. 1
 -15 1 1 2 0 0 -1.09709 4.51456 -0.507172 4.99998 1.7768 0. -1
</event>
<event>
 4 80 1 -1 -1 -1
 11 -1 0 0 0 0 0 0 4.99963 4.99963 0 0. 9.
 -11 -1 0 0 0 0 0 0 -5 5 0 0. 9.
 15 1 1 2 0 0 1.51853 -2.50355 -3.64254 4.99995 1.7768 0. -1
 -15 1 1 2 0 0 -1.51853 2.50355 3.64217 4.99968 1.7768 0. 1
</event>
<event>
 4 80 1 -1 -1 -1
 11 -1 0 0 0 0 0 0 4.98122 4.98122 0 0. 9.
 -11 -1 0 0 0 0 0 0 -5 5 0 0. 9.
 15 1 1 2 0 0 0.940859 0.796068 4.48833 4.98214 1.7768 0. -1
 -15 1 1 2 0 0 -0.940859 -0.796068 -4.50711 4.99907 1.7768 0. 1
</event>
<event>
 4 80 1 -1 -1 -1
 11 -1 0 0 0 0 0 0 4.99767 4.99767 0 0. 9.
 -11 -1 0 0 0 0 0 0 -4.99214 4.99214 0 0. 9.
 15 1 1 2 0 0 0.746592 2.23761 -4.02552 4.99267 1.7768 0. -1
 -15 1 1 2 0 0 -0.746592 -2.23761 4.03105 4.99714 1.7768 0. 1
</event>
<event>
 4 80 1 -1 -1 -1
 11 -1 0 0 0 0 0 0 5 5 0 0. 9.
 -11 -1 0 0 0 0 0 0 -4.99997 4.99997 0 0. 9.
 15 1 1 2 0 0 -0.763 1.56409 4.33747 5 1.7768 0. -1
 -15 1 1 2 0 0 0.763 -1.56409 -4.33744 4.99997 1.7768 0. 1
</event>
<event>
 4 80 1 -1 -1 -1
 11 -1 0 0 0 0 0 0 5 5 0 0. 9.
 -11 -1 0 0 0 0 0 0 -5 5 0 0. 9.
 15 1 1 2 0 0 -3.25614 3.15229 1.14144 5 1.7768 0. -1
 -15 1 1 2 0 0 3.25614 -3.15229 -1.14144 5 1.7768 0. 1
</event>
<event>
 4 80 1 -1 -1 -1
 11 -1 0 0 0 0 0 0 5 5 0 0. 9.
 -11 -1 0 0 0 0 0 0 -4.99008 4.99008 0 0. 9.
 15 1 1 2 0 0 -0.51856 -1.31009 -4.44559 4.99062 1.7768 0. 1
 -15 1 1 2 0 0 0.51856 1.31009 4.45551 4.99946 1.7768 0. -1
</event>
<event>
 4 80 1 -1 -1 -1
 11 -1 0 0 0 0 0 0 4.9506 4.9506 0 0. 9.
 -11 -1 0 0 0 0 0 0 -5 5 0 0. 9.
 15 1 1 2 0 0 -3.78526 -1.66308 2.09694 4.96477 1.7768 0. 1
 -15 1 1 2 0 0 3.78526 1.66308 -2.14634 4.98583 1.7768 0. -1
</event>
<event>
 4 80 1 -1 -1 -1
 11 -1 0 0 0 0 0 0 5 5 0 0. 9.
 -11 -1 0 0 0 0 0 0 -5 5 0 0. 9.
 15 1 1 2 0 0 -0.871066 4.55922 -0.544983 5 1.7768 0. -1
 -15 1 1 2 0 0 0.871066 -4.55922 0.544983 5 1.7768 0. 1
</event>
<event>
 4 80 1 -1 -1 -1
 11 -1 0 0 0 0 0 0 5 5 0 0. 9.
 -11 -1 0 0 0 0 0 0 -5 5 0 0. 9.
 15 1 1 2 0 0 -0.571161 -2.33273 4.00929 5 1.7768 0. 1
 -15 1 1 2 0 0 0.571161 2.33273 -4.00929 5 1.7768 0. -1
</event>
<event>
 4 80 1 -1 -1 -1
 11 -1 0 0 0 0 0 0 5 5 0 0. 9.
 -11 -1 0 0 0 0 0 0 -5 5 0 0. 9.
 15 1 1 2 0 0 -1.73265 1.7878 -3.95524 5 1.7768 0. -1
 -15 1 1 2 0 0 1.73265 -1.7878 3.95524 5 1.7768 0. 1
</event>
<event>
 4 80 1 -1 -1 -1
 11 -1 0 0 0 0 0 0 5 5 0 0. 9.
 -11 -1 0 0 0 0 0 0 -0.699399 0.699399 0 0. 9.
 15 1 1 2 0 0 -0.139618 0.489024 2.58301 3.17621 1.7768 0. -1
 -15 1 1 2 0 0 0.139618 -0.489024 1.71759 2.52319 1.7768 0. 1
</event>
<event>
 4 80 1 -1 -1 -1
 11 -1 0 0 0 0 0 0 5 5 0 0. 9.
 -11 -1 0 0 0 0 0 0 -5 5 0 0. 9.
 15 1 1 2 0 0 3.98657 -2.40761 -0.391059 5 1.7768 0. 1
 -15 1 1 2 0 0 -3.98657 2.40761 0.391059 5 1.7768 0. -1
</event>
<event>
 4 80 1 -1 -1 -1
 11 -1 0 0 0 0 0 0 4.99763 4.99763 0 0. 9.
 -11 -1 0 0 0 0 0 0 -5 5 0 0. 9.
 15 1 1 2 0 0 -1.37556 -1.83233 -4.07314 4.99978 1.7768 0. 1
 -15 1 1 2 0 0 1.37556 1.83233 4.07078 4.99785 1.7768 0. -1
</event>
<event>
 4 80 1 -1 -1 -1
 11 -1 0 0 0 0 0 0 5 5 0 0. 9.
 -11 -1 0 0 0 0 0 0 -4.99998 4.99998 0 0. 9.
 15 1 1 2 0 0 4.24481 1.49288 1.26298 4.99999 1.7768 0. -1
 -15 1 1 2 0 0 -4.24481 -1.49288 -1.26296 4.99999 1.7768 0. 1
</event>
<event>
 4 80 1 -1 -1 -1
 11 -1 0 0 0 0 0 0 4.97161 4.97161 0 0. 9.
 -11 -1 0 0 0 0 0 0 -4.99925 4.99925 0 0. 9.
 15 1 1 2 0 0 -3.24698 -2.14737 2.54402 4.97834 1.7768 0. -1
 -15 1 1 2 0 0 3.24698 2.14737 -2.57166 4.99252 1.7768 0. 1
</event>
<event>
 4 80 1 -1 -1 -1
 11 -1 0 0 0 0 0 0 5 5 0 0. 9.
 -11 -1 0 0 0 0 0 0 -4.96606 4.96606 0 0. 9.
 15 1 1 2 0 0 2.17393 2.88437 2.95416 4.99303 1.7768 0. -1
 -15 1 1 2 0 0 -2.17393 -2.88437 -2.92022 4.97303 1.7768 0. 1
</event>
<event>
 4 80 1 -1 -1 -1
 11 -1 0 0 0 0 0 0 4.9947 4.9947 0 0. 9.
 -11 -1 0 0 0 0 0 0 -5 5 0 0. 9.
 15 1 1 2 0 0 0.183281 3.45657 -3.13862 4.99901 1.7768 0. -1
 -15 1 1 2 0 0 -0.183281 -3.45657 3.13333 4.99569 1.7768 0. 1
</event>
<event>
 4 80 1 -1 -1 -1
 11 -1 0 0 0 0 0 0 4.96746 4.96746 0 0. 9.
 -11 -1 0 0 0 0 0 0 -5 5 0 0. 9.
 15 1 1 2 0 0 3.46365 -1.19994 -2.88732 4.9931 1.7768 0. -1
 -15 1 1 2 0 0 -3.46365 1.19994 2.85478 4.97435 1.7768 0. 1
</event>
<event>
 4 80 1 -1 -1 -1
 11 -1 0 0 0 0 0 0 4.99994 4.99994 0 0. 9.
 -11 -1 0 0 0 0 0 0 -5 5 0 0. 9.
 15 1 1 2 0 0 -1.5496 0.777896 4.33997 4.99994 1.7768 0. 1
 -15 1 1 2 0 0 1.5496 -0.777896 -4.34003 5 1.7768 0. -1
</event>
<event>
 4 80 1 -1 -1 -1
 11 -1 0 0 0 0 0 0 5 5 0 0. 9.
 -11 -1 0 0 0 0 0 0 -4.9944 4.9944 0 0. 9.
 15 1 1 2 0 0 -1.59047 -4.17783 1.35574 4.99796 1.7768 0. -1
 -15 1 1 2 0 0 1.59047 4.17783 -1.35014 4.99644 1.7768 0. 1
</event>
<event>
 4 80 1 -1 -1 -1
 11 -1 0 0 0 0 0 0 3.72063 3.72063 0 0. 9.
 -11 -1 0 0 0 0 0 0 -5 5 0 0. 9.
 15 1 1 2 0 0 -1.41959 0.792072 -4.25692 4.89099 1.7768 0. -1
 -15 1 1 2 0 0 1.41959 -0.792072 2.97755 3.82964 1.7768 0. 1
</event>
<event>
 4 80 1 -1 -1 -1
 11 -1 0 0 0 0 0 0 5 5 0 0. 9.
 -11 -1 0 0 0 0 0 0 -5 5 0 0. 9.
 15 1 1 2 0 0 -1.11321 -4.11167 -1.92282 5 1.7768 0. 1
 -15 1 1 2 0 0 1.11321 4.11167 1.92282 5 1.7768 0. -1
</event>
<event>
 4 80 1 -1 -1 -1
 11 -1 0 0 0 0 0 0 4.71136 4.71136 0 0. 9.
 -11 -1 0 0 0 0 0 0 -1.89747 1.89747 0 0. 9.
 15 1 1 2 0 0 -1.97865 0.448365 2.83338 3.91176 1.7768 0. 1
 -15 1 1 2 0 0 1.97865 -0.448365 -0.0194915 2.69707 1.7768 0. -1
</event>
<event>
 4 80 1 -1 -1 -1
 11 -1 0 0 0 0 0 0 5 5 0 0. 9.
 -11 -1 0 0 0 0 0 0 -2.1561 2.1561 0 0. 9.
 15 1 1 2 0 0 -2.34923 -1.08703 2.46848 3.99395 1.7768 0. -1
 -15 1 1 2 0 0 2.34923 1.08703 0.375421 3.16215 1.7768 0. 1
</event>
<event>
 4 80 1 -1 -1 -1
 11 -1 0 0 0 0 0 0 4.99397 4.99397 0 0. 9.
 -11 -1 0 0 0 0 0 0 -0.854569 0.854569 0 0. 9.
 15 1 1 2 0 0 0.0261302 1.04368 1.8695 2.78257 1.7768 0. -1
 -15 1 1 2 0 0 -0.0261302 -1.04368 2.2699 3.06596 1.7768 0. 1
</event>
<event>
 4 80 1 -1 -1 -1
 11 -1 0 0 0 0 0 0 4.99962 4.99962 0 0. 9.
 -11 -1 0 0 0 0 0 0 -5 5 0 0. 9.
 15 1 1 2 0 0 4.29763 -1.13207 -1.44559 4.99987 1.7768 0. 1
 -15 1 1 2 0 0 -4.29763 1.13207 1.44522 4.99976 1.7768 0. -1
</event>
<event>
 4 80 1 -1 -1 -1
 11 -1 0 0 0 0 0 0 5 5 0 0. 9.
 -11 -1 0 0 0 0 0 0 -4.99995 4.99995 0 0. 9.
 15 1 1 2 0 0 3.66907 -2.54865 -1.37269 4.99997 1.7768 0. -1
 -15 1 1 2 0 0 -3.66907 2.54865 1.37273 4.99998 1.7768 0. 1
</event>
<event>
 4 80 1 -1 -1 -1
 11 -1 0 0 0 0 0 0 5 5 0 0. 9.
 -11 -1 0 0 0 0 0 0 -5 5 0 0. 9.
 15 1 1 2 0 0 2.3822 -3.64667 -1.69388 5 1.7768 0. 1
 -15 1 1 2 0 0 -2.3822 3.64667 1.69388 5 1.7768 0. -1
</event>
<event>
 4 80 1 -1 -1 -1
 11 -1 0 0 0 0 0 0 5 5 0 0. 9.
 -11 -1 0 0 0 0 0 0 -4.80271 4.80271 0 0. 9.
 15 1 1 2 0 0 1.8248 -4.15046 -0.448808 4.89034 1.7768 0. 1
 -15 1 1 2 0 0 -1.8248 4.15046 0.646099 4.91237 1.7768 0. -1
</event>
<event>
 4 80 1 -1 -1 -1
 11 -1 0 0 0 0 0 0 5 5 0 0. 9.
 -11 -1 0 0 0 0 0 0 -4.7594 4.7594 0 0. 9.
 15 1 1 2 0 0 -2.51146 2.98722 2.4466 4.93705 1.7768 0. 1
 -15 1 1 2 0 0 2.51146 -2.98722 -2.206 4.82235 1.7768 0. -1
</event>
<event>
 4 80 1 -1 -1 -1
 11 -1 0 0 0 0 0 0 4.99865 4.99865 0 0. 9.
 -11 -1 0 0 0 0 0 0 -4.99974 4.99974 0 0. 9.
 15 1 1 2 0 0 -3.46695 2.89947 -1.18694 4.99932 1.7768 0. 1
 -15 1 1 2 0 0 3.46695 -2.89947 1.18584 4.99906 1.7768 0. -1
</event>
<event>
 4 80 1 -1 -1 -1
 11 -1 0 0 0 0 0 0 2.97321 2.97321 0 0. 9.
 -11 -1 0 0 0 0 0 0 -5 5 0 0. 9.
 15 1 1 2 0 0 3.02409 -1.55513 -1.4068 4.08661 1.7768 0. -1
 -15 1 1 2 0 0 -3.02409 1.55513 -0.61999 3.8866 1.7768 0. 1
</event>
<event>
 4 80 1 -1 -1 -1
 11 -1 0 0 0 0 0 0 5 5 0 0. 9.
 -11 -1 0 0 0 0 0 0 -5 5 0 0. 9.
 15 1 1 2 0 0 -3.11426 3.46732 0.348351 5 1.7768 0. 1
 -15 1 1 2 0 0 3.11426 -3.46732 -0.348351 5 1.7768 0. -1
</event>
<event>
 4 80 1 -1 -1 -1
 11 -1 0 0 0 0 0 0 4.45168 4.45168 0 0. 9.
 -11 -1 0 0 0 0 0 0 -4.92523 4.92523 0 0. 9.
 15 1 1 2 0 0 -3.00131 2.83911 -1.54204 4.75437 1.7768 0. -1
 -15 1 1 2 0 0 3.00131 -2.83911 1.06849 4.62254 1.7768 0. 1
</event>
<event>
 4 80 1 -1 -1 -1
 11 -1 0 0 0 0 0 0 4.91789 4.91789 0 0. 9.
 -11 -1 0 0 0 0 0 0 -5 5 0 0. 9.
 15 1 1 2 0 0 -2.90096 -1.10342 3.39398 4.93051 1.7768 0. -1
 -15 1 1 2 0 0 2.90096 1.10342 -3.47609 4.98738 1.7768 0. 1
</event>
<event>
 4 80 1 -1 -1 -1
 11 -1 0 0 0 0 0 0 4.99995 4.99995 0 0. 9.
 -11 -1 0 0 0 0 0 0 -5 5 0 0. 9.
 15 1 1 2 0 0 -1.85191 1.29526 4.09079 4.99995 1.7768 0. 1
 -15 1 1 2 0 0 1.85191 -1.29526 -4.09084 5 1.7768 0. -1
</event>
<event>
 4 80 1 -1 -1 -1
 11 -1 0 0 0 0 0 0 1.32255 1.32255 0 0. 9.
 -11 -1 0 0 0 0 0 0 -3.96835 3.96835 0 0. 9.
 15 1 1 2 0 0 0.633193 -1.09795 -2.12643 3.04727 1.7768 0. 1
 -15 1 1 2 0 0 -0.633193 1.09795 -0.519367 2.24363 1.7768 0. -1
</event>
<event>
 4 80 1 -1 -1 -1
 11 -1 0 0 0 0 0 0 5 5 0 0. 9.
 -11 -1 0 0 0 0 0 0 -5 5 0 0. 9.
 15 1 1 2 0 0 -0.26298 -1.68886 4.34981 5 1.7768 0. 1
 -15 1 1 2 0 0 0.26298 1.68886 -4.34981 5 1.7768 0. -1
</event>
<event>
 4 80 1 -1 -1 -1
 11 -1 0 0 0 0 0 0 5 5 0 0. 9.
 -11 -1 0 0 0 0 0 0 -5 5 0 0. 9.
 15 1 1 2 0 0 -2.05557 4.15245 0.611612 5 1.7768 0. 1
 -15 1 1 2 0 0 2.05557 -4.15245 -0.611612 5 1.7768 0. -1
</event>
<event>
 4 80 1 -1 -1 -1
 11 -1 0 0 0 0 0 0 5 5 0 0. 9.
 -11 -1 0 0 0 0 0 0 -4.99964 4.99964 0 0. 9.
 15 1 1 2 0 0 -2.21515 4.01714 0.892465 4.99985 1.7768 0. -1
 -15 1 1 2 0 0 2.21515 -4.01714 -0.89211 4.99979 1.7768 0. 1
</event>
<event>
 4 80 1 -1 -1 -1
 11 -1 0 0 0 0 0 0 4.24919 4.24919 0 0. 9.
 -11 -1 0 0 0 0 0 0 -4.99805 4.99805 0 0. 9.
 15 1 1 2 0 0 3.42732 2.48085 -0.798695 4.65798 1.7768 0. -1
 -15 1 1 2 0 0 -3.42732 -2.48085 0.0498354 4.58926 1.7768 0. 1
</event>
<event>
 4 80 1 -1 -1 -1
 11 -1 0 0 0 0 0 0 4.99378 4.99378 0 0. 9.
 -11 -1 0 0 0 0 0 0 -4.9831 4.9831 0 0. 9.
 15 1 1 2 0 0 0.319098 4.06474 2.26428 4.99086 1.7768 0. -1
 -15 1 1 2 0 0 -0.319098 -4.06474 -2.2536 4.98602 1.7768 0. 1
</event>
<event>
 4 80 1 -1 -1 -1
 11 -1 0 0 0 0 0 0 4.99885 4.99885 0 0. 9.
 -11 -1 0 0 0 0 0 0 -5 5 0 0. 9.
 15 1 1 2 0 0 0.226496 -4.48888 1.27817 4.99928 1.7768 0. -1
 -15 1 1 2 0 0 -0.226496 4.48888 -1.27932 4.99957 1.7768 0. 1
</event>
<event>
 4 80 1 -1 -1 -1
 11 -1 0 0 0 0 0 0 4.99965 4.99965 0 0. 9.
 -11 -1 0 0 0 0 0 0 -5 5 0 0. 9.
 15 1 1 2 0 0 1.76604 -1.2486 4.14261 4.99968 1.7768 0. -1
 -15 1 1 2 0 0 -1.76604 1.2486 -4.14295 4.99997 1.7768 0. 1
</event>
<event>
 4 80 1 -1 -1 -1
 11 -1 0 0 0 0 0 0 5 5 0 0. 9.
 -11 -1 0 0 0 0 0 0 -2.4475 2.4475 0 0. 9.
 15 1 1 2 0 0 2.64066 -0.756189 2.59503 4.17574 1.7768 0. -1
 -15 1 1 2 0 0 -2.64066 0.756189 -0.0425245 3.27176 1.7768 0. 1
</event>
<event>
 4 80 1 -1 -1 -1
 11 -1 0 0 0 0 0 0 4.87817 4.87817 0 0. 9.
 -11 -1 0 0 0 0 0 0 -5 5 0 0. 9.
 15 1 1 2 0 0 -3.26928 2.85721 1.48235 4.92005 1.7768 0. 1
 -15 1 1 2 0 0 3.26928 -2.85721 -1.60418 4.95812 1.7768 0. -1
</event>
<event>
 4 80 1 -1 -1 -1
 11 -1 0 0 0 0 0 0 4.52462 4.52462 0 0. 9.
 -11 -1 0 0 0 0 0 0 -4.99997 4.99997 0 0. 9.
 15 1 1 2 0 0 1.9382 0.133689 3.72842 4.56436 1.7768 0. -1
 -15 1 1 2 0 0 -1.9382 -0.133689 -4.20376 4.96023 1.7768 0. 1
</event>
<event>
 4 80 1 -1 -1 -1
 11 -1 0 0 0 0 0 0 5 5 0 0. 9.
 -11 -1 0 0 0 0 0 0 -5 5 0 0. 9.
 15 1 1 2 0 0 -4.05374 -2.19452 -0.770404 5 1.7768 0. 1
 -15 1 1 2 0 0 4.05374 2.19452 0.770404 5 1.7768 0. -1
</event>
<event>
 4 80 1 -1 -1 -1
 11 -1 0 0 0 0 0 0 5 5 0 0. 9.
 -11 -1 0 0 0 0 0 0 -4.99918 4.99918 0 0. 9.
 15 1 1 2 0 0 0.824612 2.76187 -3.67794 4.99929 1.7768 0. -1
 -15 1 1 2 0 0 -0.824612 -2.76187 3.67876 4.99989 1.7768 0. 1
</event>
<event>
 4 80 1 -1 -1 -1
 11 -1 0 0 0 0 0 0 5 5 0 0. 9.
 -11 -1 0 0 0 0 0 0 -5 5 0 0. 9.
 15 1 1 2 0 0 3.36348 3.18764 0.606812 5 1.7768 0. -1
 -15 1 1 2 0 0 -3.36348 -3.18764 -0.606812 5 1.7768 0. 1
</event>
<event>
 4 80 1 -1 -1 -1
 11 -1 0 0 0 0 0 0 5 5 0 0. 9.
 -11 -1 0 0 0 0 0 0 -4.99325 4.99325 0 0. 9.
 15 1 1 2 0 0 1.08132 -2.65206 3.69199 4.99912 1.7768 0. 1
 -15 1 1 2 0 0 -1.08132 2.65206 -3.68524 4.99414 1.7768 0. -1
</event>
<event>
 4 80 1 -1 -1 -1
 11 -1 0 0 0 0 0 0 5 5 0 0. 9.
 -11 -1 0 0 0 0 0 0 -4.49717 4.49717 0 0. 9.
 15 1 1 2 0 0 -0.710651 1.7203 4.23993 4.95976 1.7768 0. -1
 -15 1 1 2 0 0 0.710651 -1.7203 -3.7371 4.53741 1.7768 0. 1
</event>
<event>
 4 80 1 -1 -1 -1
 11 -1 0 0 0 0 0 0 3.75555 3.75555 0 0. 9.
 -11 -1 0 0 0 0 0 0 -5 5 0 0. 9.
 15 1 1 2 0 0 -2.63223 -2.89879 -0.0796757 4.30066 1.7768 0. 1
 -15 1 1 2 0 0 2.63223 2.89879 -1.16478 4.45489 1.7768 0. -1
</event>
<event>
 4 80 1 -1 -1 -1
 11 -1 0 0 0 0 0 0 0.651241 0.651241 0 0. 9.
 -11 -1 0 0 0 0 0 0 -5 5 0 0. 9.
 15 1 1 2 0 0 0.158797 -0.0317511 -2.59528 3.14951 1.7768 0. -1
 -15 1 1 2 0 0 -0.158797 0.0317511 -1.75348 2.50173 1.7768 0. 1
</event>
<event>
 4 80 1 -1 -1 -1
 11 -1 0 0 0 0 0 0 3.19799 3.19799 0 0. 9.
 -11 -1 0 0 0 0 0 0 -5 5 0 0. 9.
 15 1 1 2 0 0 -1.02144 -0.432834 2.59049 3.33152 1.7768 0. 1
 -15 1 1 2 0 0 1.02144 0.432834 -4.3925 4.86646 1.7768 0. -1
</event>
<event>
 4 80 1 -1 -1 -1
 11 -1 0 0 0 0 0 0 4.99955 4.99955 0 0. 9.
 -11 -1 0 0 0 0 0 0 -5 5 0 0. 9.
 15 1 1 2 0 0 4.25957 0.538146 -1.84589 4.99986 1.7768 0. -1
 -15 1 1 2 0 0 -4.25957 -0.538146 1.84545 4.99969 1.7768 0. 1
</event>
<event>
 4 80 1 -1 -1 -1
 11 -1 0 0 0 0 0 0 5 5 0 0. 9.
 -11 -1 0 0 0 0 0 0 -4.99898 4.99898 0 0. 9.
 15 1 1 2 0 0 -0.260398 -4.63864 -0.501882 4.99944 1.7768 0. -1
 -15 1 1 2 0 0 0.260398 4.63864 0.502899 4.99954 1.7768 0. 1
</event>
<event>
 4 80 1 -1 -1 -1
 11 -1 0 0 0 0 0 0 5 5 0 0. 9.
 -11 -1 0 0 0 0 0 0 -5 5 0 0. 9.
 15 1 1 2 0 0 3.81993 -1.50533 2.23258 5 1.7768 0. -1
 -15 1 1 2 0 0 -3.81993 1.50533 -2.23258 5 1.7768 0. 1
</event>
<event>
 4 80 1 -1 -1 -1
 11 -1 0 0 0 0 0 0 5 5 0 0. 9.
 -11 -1 0 0 0 0 0 0 -4.99999 4.99999 0 0. 9.
 15 1 1 2 0 0 -1.12396 -2.22293 -3.95443 4.99999 1.7768 0. -1
 -15 1 1 2 0 0 1.12396 2.22293 3.95443 4.99999 1.7768 0. 1
</event>
<event>
 4 80 1 -1 -1 -1
 11 -1 0 0 0 0 0 0 2.63025 2.63025 0 0. 9.
 -11 -1 0 0 0 0 0 0 -4.9805 4.9805 0 0. 9.
 15 1 1 2 0 0 0.0510331 -1.07234 1.94197 2.8428 1.7768 0. -1
 -15 1 1 2 0 0 -0.0510331 1.07234 -4.29222 4.76795 1.7768 0. 1
</event>
<event>
 4 80 1 -1 -1 -1
 11 -1 0 0 0 0 0 0 4.99995 4.99995 0 0. 9.
 -11 -1 0 0 0 0 0 0 -2.06783 2.06783 0 0. 9.
 15 1 1 2 0 0 2.19474 -0.995003 2.75451 4.06842 1.7768 0. 1
 -15 1 1 2 0 0 -2.19474 0.995003 0.177607 2.99937 1.7768 0. -1
</event>
<event>
 4 80 1 -1 -1 -1
 11 -1 0 0 0 0 0 0 5 5 0 0. 9.
 -11 -1 0 0 0 0 0 0 -5 5 0 0. 9.
 15 1 1 2 0 0 -4.01216 0.825901 2.25004 5 1.7768 0. 1
 -15 1 1 2 0 0 4.01216 -0.825901 -2.25004 5 1.7768 0. -1
</event>
<event>
 4 80 1 -1 -1 -1
 11 -1 0 0 0 0 0 0 3.06137 3.06137 0 0. 9.
 -11 -1 0 0 0 0 0 0 -4.99991 4.99991 0 0. 9.
 15 1 1 2 0 0 -1.40446 -0.5258 -4.2108 4.81015 1.7768 0. -1
 -15 1 1 2 0 0 1.40446 0.5258 2.27226 3.25113 1.7768 0. 1
</event>
<event>
 4 80 1 -1 -1 -1
 11 -1 0 0 0 0 0 0 5 5 0 0. 9.
 -11 -1 0 0 0 0 0 0 -4.47137 4.47137 0 0. 9.
 15 1 1 2 0 0 0.515808 1.35305 -3.87764 4.50451 1.7768 0. -1
 -15 1 1 2 0 0 -0.515808 -1.35305 4.40627 4.96686 1.7768 0. 1
</event>
<event>
 4 80 1 -1 -1 -1
 11 -1 0 0 0 0 0 0 5 5 0 0. 9.
 -11 -1 0 0 0 0 0 0 -5 5 0 0. 9.
 15 1 1 2 0 0 0.855065 -3.37813 3.11438 5 1.7768 0. -1
 -15 1 1 2 0 0 -0.855065 3.37813 -3.11438 5 1.7768 0. 1
</event>
<event>
 4 80 1 -1 -1 -1
 11 -1 0 0 0 0 0 0 5 5 0 0. 9.
 -11 -1 0 0 0 0 0 0 -4.46704 4.46704 0 0. 9.
 15 1 1 2 0 0 0.321909 -3.6156 -2.18717 4.59539 1.7768 0. -1
 -15 1 1 2 0 0 -0.321909 3.6156 2.72012 4.87165 1.7768 0. 1
</event>
<event>
 4 80 1 -1 -1 -1
 11 -1 0 0 0 0 0 0 4.99982 4.99982 0 0. 9.
 -11 -1 0 0 0 0 0 0 -2.40599 2.40599 0 0. 9.
 15 1 1 2 0 0 2.07121 2.07395 1.8625 3.901 1.7768 0. -1
 -15 1 1 2 0 0 -2.07121 -2.07395 0.731323 3.50481 1.7768 0. 1
</event>
<event>
 4 80 1 -1 -1 -1
 11 -1 0 0 0 0 0 0 4.99997 4.99997 0 0. 9.
 -11 -1 0 0 0 0 0 0 -5 5 0 0. 9.
 15 1 1 2 0 0 2.17865 -2.28227 -3.44775 5 1.7768 0. -1
 -15 1 1 2 0 0 -2.17865 2.28227 3.44772 4.99997 1.7768 0. 1
</event>
<event>
 4 80 1 -1 -1 -1
 11 -1 0 0 0 0 0 0 5 5 0 0. 9.
 -11 -1 0 0 0 0 0 0 -5 5 0 0. 9.
 15 1 1 2 0 0 2.05486 -0.548619 -4.16159 5 1.7768 0. 1
 -15 1 1 2 0 0 -2.05486 0.548619 4.16159 5 1.7768 0. -1
</event>
<event>
 4 80 1 -1 -1 -1
 11 -1 0 0 0 0 0 0 4.99994 4.99994 0 0. 9.
 -11 -1 0 0 0 0 0 0 -5 5 0 0. 9.
 15 1 1 2 0 0 3.93961 2.35955 0.868266 4.99997 1.7768 0. -1
 -15 1 1 2 0 0 -3.93961 -2.35955 -0.868325 4.99998 1.7768 0. 1
</event>
<event>
 4 80 1 -1 -1 -1
 11 -1 0 0 0 0 0 0 4.99999 4.99999 0 0. 9.
 -11 -1 0 0 0 0 0 0 -5 5 0 0. 9.
 15 1 1 2 0 0 -1.24645 -4.50374 0.0701358 5 1.7768 0. -1
 -15 1 1 2 0 0 1.24645 4.50374 -0.0701447 5 1.7768 0. 1
</event>
<event>
 4 80 1 -1 -1 -1
 11 -1 0 0 0 0 0 0 4.7505 4.7505 0 0. 9.
 -11 -1 0 0 0 0 0 0 -4.99998 4.99998 0 0. 9.
 15 1 1 2 0 0 3.15629 3.26011 -0.0597971 4.87358 1.7768 0. 1
 -15 1 1 2 0 0 -3.15629 -3.26011 -0.189677 4.8769 1.7768 0. -1
</event>
<event>
 4 80 1 -1 -1 -1
 11 -1 0 0 0 0 0 0 5 5 0 0. 9.
 -11 -1 0 0 0 0 0 0 -5 5 0 0. 9.
 15 1 1 2 0 0 2.03051 -3.46985 2.38315 5 1.7768 0. 1
 -15 1 1 2 0 0 -2.03051 3.46985 -2.38315 5 1.7768 0. -1
</event>
<event>
 4 80 1 -1 -1 -1
 11 -1 0 0 0 0 0 0 5 5 0 0. 9.
 -11 -1 0 0 0 0 0 0 -4.99999 4.99999 0 0. 9.
 15 1 1 2 0 0 -1.68279 4.05325 1.60673 5 1.7768 0. -1
 -15 1 1 2 0 0 1.68279 -4.05325 -1.60672 4.99999 1.7768 0. 1
</event>
<event>
 4 80 1 -1 -1 -1
 11 -1 0 0 0 0 0 0 1.74948 1.74948 0 0. 9.
 -11 -1 0 0 0 0 0 0 -5 5 0 0. 9.
 15 1 1 2 0 0 1.50672 1.30843 -3.07196 4.07147 1.7768 0. 1
 -15 1 1 2 0 0 -1.50672 -1.30843 -0.178556 2.67802 1.7768 0. -1
</event>
<event>
 4 80 1 -1 -1 -1
 11 -1 0 0 0 0 0 0 5 5 0 0. 9.
 -11 -1 0 0 0 0 0 0 -5 5 0 0. 9.
 15 1 1 2 0 0 -3.97122 -2.14697 1.20921 5 1.7768 0. 1
 -15 1 1 2 0 0 3.97122 2.14697 -1.20921 5 1.7768 0. -1
</event>
<event>
 4 80 1 -1 -1 -1
 11 -1 0 0 0 0 0 0 5 5 0 0. 9.
 -11 -1 0 0 0 0 0 0 -4.99982 4.99982 0 0. 9.
 15 1 1 2 0 0 -3.04532 -1.94554 -2.9634 4.99985 1.7768 0. -1
 -15 1 1 2 0 0 3.04532 1.94554 2.96358 4.99996 1.7768 0. 1
</event>
<event>
 4 80 1 -1 -1 -1
 11 -1 0 0 0 0 0 0 3.68988 3.68988 0 0. 9.
 -11 -1 0 0 0 0 0 0 -4.99995 4.99995 0 0. 9.
 15 1 1 2 0 0 -0.607458 -2.28619 2.49478 3.87005 1.7768 0. 1
 -15 1 1 2 0 0 0.607458 2.28619 -3.80484 4.81977 1.7768 0. -1
</event>
<event>
 4 80 1 -1 -1 -1
 11 -1 0 0 0 0 0 0 1.75675 1.75675 0 0. 9.
 -11 -1 0 0 0 0 0 0 -5 5 0 0. 9.
 15 1 1 2 0 0 -1.50238 0.582701 0.362381 2.42605 1.7768 0. -1
 -15 1 1 2 0 0 1.50238 -0.582701 -3.60563 4.3307 1.7768 0. 1
</event>
<event>
 4 80 1 -1 -1 -1
 11 -1 0 0 0 0 0 0 5 5 0 0. 9.
 -11 -1 0 0 0 0 0 0 -5 5 0 0. 9.
 15 1 1 2 0 0 -0.389807 4.48035 1.27154 5 1.7768 0. 1
 -15 1 1 2 0 0 0.389807 -4.48035 -1.27154 5 1.7768 0. -1
</event>
<event>
 4 80 1 -1 -1 -1
 11 -1 0 0 0 0 0 0 5 5 0 0. 9.
 -11 -1 0 0 0 0 0 0 -4.15979 4.15979 0 0. 9.
 15 1 1 2 0 0 2.17812 3.57675 0.743786 4.60959 1.7768 0. -1
 -15 1 1 2 0 0 -2.17812 -3.57675 0.0964234 4.5502 1.7768 0. 1
</event>
<event>
 4 80 1 -1 -1 -1
 11 -1 0 0 0 0 0 0 5 5 0 0. 9.
 -11 -1 0 0 0 0 0 0 -4.99997 4.99997 0 0. 9.
 15 1 1 2 0 0 -2.42002 -0.162214 3.99493 5 1.7768 0. -1
 -15 1 1 2 0 0 2.42002 0.162214 -3.9949 4.99998 1.7768 0. 1
</event>
<event>
 4 80 1 -1 -1 -1
 11 -1 0 0 0 0 0 0 4.99986 4.99986 0 0. 9.
 -11 -1 0 0 0 0 0 0 -4.99995 4.99995 0 0. 9.
 15 1 1 2 0 0 4.66081 -0.303337 -0.161718 4.9999 1.7768 0. 1
 -15 1 1 2 0 0 -4.66081 0.303337 0.161627 4.9999 1.7768 0. -1
</event>
<event>
 4 80 1 -1 -1 -1
 11 -1 0 0 0 0 0 0 4.99964 4.99964 0 0. 9.
 -11 -1 0 0 0 0 0 0 -4.70989 4.70989 0 0. 9.
 15 1 1 2 0 0 -1.682 -3.95757 -1.23361 4.81363 1.7768 0. -1
 -15 1 1 2 0 0 1.682 3.95757 1.52336 4.8959 1.7768 0. 1
</event>
<event>
 4 80 1 -1 -1 -1
 11 -1 0 0 0 0 0 0 4.99994 4.99994 0 0. 9.
 -11 -1 0 0 0 0 0 0 -5 5 0 0. 9.
 15 1 1 2 0 0 -1.01439 2.02853 4.0863 4.99994 1.7768 0. -1
 -15 1 1 2 0 0 1.01439 -2.02853 -4.08636 4.99999 1.7768 0. 1
</event>
<event>
 4 80 1 -1 -1 -1
 11 -1 0 0 0 0 0 0 4.94282 4.94282 0 0. 9.
 -11 -1 0 0 0 0 0 0 -5 5 0 0. 9.
 15 1 1 2 0 0 3.29838 -3.25066 0.303476 4.9695 1.7768 0. -1
 -15 1 1 2 0 0 -3.29838 3.25066 -0.360656 4.97332 1.7768 0. 1
</event>
<event>
 4 80 1 -1 -1 -1
 11 -1 0 0 0 0 0 0 5 5 0 0. 9.
 -11 -1 0 0 0 0 0 0 -5 5 0 0. 9.
 15 1 1 2 0 0 1.02193 2.23575 3.97484 5 1.7768 0. -1
 -15 1 1 2 0 0 -1.02193 -2.23575 -3.97484 5 1.7768 0. 1
</event>
<event>
 4 80 1 -1 -1 -1
 11 -1 0 0 0 0 0 0 4.99999 4.99999 0 0. 9.
 -11 -1 0 0 0 0 0 0 -5 5 0 0. 9.
 15 1 1 2 0 0 2.59209 -1.82372 3.43472 4.99999 1.7768 0. 1
 -15 1 1 2 0 0 -2.59209 1.82372 -3.43472 5 1.7768 0. -1
</event>
<event>
 4 80 1 -1 -1 -1
 11 -1 0 0 0 0 0 0 5 5 0 0. 9.
 -11 -1 0 0 0 0 0 0 -5 5 0 0. 9.
 15 1 1 2 0 0 -2.6815 -0.175833 3.82373 5 1.7768 0. 1
 -15 1 1 2 0 0 2.6815 0.175833 -3.82372 5 1.7768 0. -1
</event>
<event>
 4 80 1 -1 -1 -1
 11 -1 0 0 0 0 0 0 5 5 0 0. 9.
 -11 -1 0 0 0 0 0 0 -5 5 0 0. 9.
 15 1 1 2 0 0 -0.860112 0.774063 -4.52806 5 1.7768 0. 1
 -15 1 1 2 0 0 0.860112 -0.774063 4.52806 5 1.7768 0. -1
</event>
<event>
 4 80 1 -1 -1 -1
 11 -1 0 0 0 0 0 0 5 5 0 0. 9.
 -11 -1 0 0 0 0 0 0 -5 5 0 0. 9.
 15 1 1 2 0 0 2.42475 3.48708 -1.95016 5 1.7768 0. -1
 -15 1 1 2 0 0 -2.42475 -3.48708 1.95016 5 1.7768 0. 1
</event>
<event>
 4 80 1 -1 -1 -1
 11 -1 0 0 0 0 0 0 4.99998 4.99998 0 0. 9.
 -11 -1 0 0 0 0 0 0 -0.99629 0.99629 0 0. 9.
 15 1 1 2 0 0 -1.29175 0.0459705 1.47645 2.64733 1.7768 0. -1
 -15 1 1 2 0 0 1.29175 -0.0459705 2.52724 3.34894 1.7768 0. 1
</event>
<event>
 4 80 1 -1 -1 -1
 11 -1 0 0 0 0 0 0 5 5 0 0. 9.
 -11 -1 0 0 0 0 0 0 -5 5 0 0. 9.
 15 1 1 2 0 0 -2.31294 2.39783 3.27765 5 1.7768 0. -1
 -15 1 1 2 0 0 2.31294 -2.39783 -3.27765 5 1.7768 0. 1
</event>
<event>
 4 80 1 -1 -1 -1
 11 -1 0 0 0 0 0 0 5 5 0 0. 9.
 -11 -1 0 0 0 0 0 0 -4.99998 4.99998 0 0. 9.
 15 1 1 2 0 0 -1.16786 3.84034 2.39376 4.99999 1.7768 0. 1
 -15 1 1 2 0 0 1.16786 -3.84034 -2.39374 4.99998 1.7768 0. -1
</event>
<event>
 4 80 1 -1 -1 -1
 11 -1 0 0 0 0 0 0 5 5 0 0. 9.
 -11 -1 0 0 0 0 0 0 -5 5 0 0. 9.
 15 1 1 2 0 0 2.09076 -0.354018 -4.16481 5 1.7768 0. 1
 -15 1 1 2 0 0 -2.09076 0.354018 4.16481 5 1.7768 0. -1
</event>
<event>
 4 80 1 -1 -1 -1
 11 -1 0 0 0 0 0 0 5 5 0 0. 9.
 -11 -1 0 0 0 0 0 0 -5 5 0 0. 9.
 15 1 1 2 0 0 -3.46584 1.37591 2.81728 5 1.7768 0. 1
 -15 1 1 2 0 0 3.46584 -1.37591 -2.81728 5 1.7768 0. -1
</event>
<event>
 4 80 1 -1 -1 -1
 11 -1 0 0 0 0 0 0 4.99917 4.99917 0 0. 9.
 -11 -1 0 0 0 0 0 0 -4.99999 4.99999 0 0. 9.
 15 1 1 2 0 0 1.7231 1.77032 -3.96714 4.99991 1.7768 0. -1
 -15 1 1 2 0 0 -1.7231 -1.77032 3.96632 4.99925 1.7768 0. 1
</event>
<event>
 4 80 1 -1 -1 -1
 11 -1 0 0 0 0 0 0 5 5 0 0. 9.
 -11 -1 0 0 0 0 0 0 -4.99998 4.99998 0 0. 9.
 15 1 1 2 0 0 0.000199957 1.70673 -4.35077 4.99998 1.7768 0. -1
 -15 1 1 2 0 0 -0.000199957 -1.70673 4.35079 5 1.7768 0. 1
</event>
<event>
 4 80 1 -1 -1 -1
 11 -1 0 0 0 0 0 0 5 5 0 0. 9.
 -11 -1 0 0 0 0 0 0 -4.99998 4.99998 0 0. 9.
 15 1 1 2 0 0 -3.2113 2.30123 2.49682 5 1.7768 0. 1
 -15 1 1 2 0 0 3.2113 -2.30123 -2.4968 4.99999 1.7768 0. -1
</event>
<event>
 4 80 1 -1 -1 -1
 11 -1 0 0 0 0 0 0 5 5 0 0. 9.
 -11 -1 0 0 0 0 0 0 -5 5 0 0. 9.
 15 1 1 2 0 0 0.0508295 2.55796 3.91108 5 1.7768 0. -1
 -15 1 1 2 0 0 -0.0508295 -2.55796 -3.91108 5 1.7768 0. 1
</event>
<event>
 4 80 1 -1 -1 -1
 11 -1 0 0 0 0 0 0 1.525 1.525 0 0. 9.
 -11 -1 0 0 0 0 0 0 -4.99981 4.99981 0 0. 9.
 15 1 1 2 0 0 -0.20839 -2.08939 -1.45279 3.11084 1.7768 0. 1
 -15 1 1 2 0 0 0.20839 2.08939 -2.02201 3.41398 1.7768 0. -1
</event>
<event>
 4 80 1 -1 -1 -1
 11 -1 0 0 0 0 0 0 5 5 0 0. 9.
 -11 -1 0 0 0 0 0 0 -5 5 0 0. 9.
 15 1 1 2 0 0 0.54619 -3.49213 3.05761 5 1.7768 0. -1
 -15 1 1 2 0 0 -0.54619 3.49213 -3.05761 5 1.7768 0. 1
</event>
<event>
 4 80 1 -1 -1 -1
 11 -1 0 0 0 0 0 0 5 5 0 0. 9.
 -11 -1 0 0 0 0 0 0 -5 5 0 0. 9.
 15 1 1 2 0 0 2.27507 2.89943 -2.87395 5 1.7768 0. 1
 -15 1 1 2 0 0 -2.27507 -2.89943 2.87395 5 1.7768 0. -1
</event>
<event>
 4 80 1 -1 -1 -1
 11 -1 0 0 0 0 0 0 5 5 0 0. 9.
 -11 -1 0 0 0 0 0 0 -5 5 0 0. 9.
 15 1 1 2 0 0 -2.55352 2.00737 3.3604 5 1.7768 0. -1
 -15 1 1 2 0 0 2.55352 -2.00737 -3.3604 5 1.7768 0. 1
</event>
<event>
 4 80 1 -1 -1 -1
 11 -1 0 0 0 0 0 0 5 5 0 0. 9.
 -11 -1 0 0 0 0 0 0 -4.32523 4.32523 0 0. 9.
 15 1 1 2 0 0 3.53129 -2.35935 0.996283 4.71029 1.7768 0. 1
 -15 1 1 2 0 0 -3.53129 2.35935 -0.321513 4.61494 1.7768 0. -1
</event>
<event>
 4 80 1 -1 -1 -1
 11 -1 0 0 0 0 0 0 5 5 0 0. 9.
 -11 -1 0 0 0 0 0 0 -4.95831 4.95831 0 0. 9.
 15 1 1 2 0 0 1.30781 1.94522 -3.9966 4.96233 1.7768 0. -1
 -15 1 1 2 0 0 -1.30781 -1.94522 4.03829 4.99597 1.7768 0. 1
</event>
<event>
 4 80 1 -1 -1 -1
 11 -1 0 0 0 0 0 0 5 5 0 0. 9.
 -11 -1 0 0 0 0 0 0 -4.99999 4.99999 0 0. 9.
 15 1 1 2 0 0 -1.04465 2.8789 3.53028 5 1.7768 0. 1
 -15 1 1 2 0 0 1.04465 -2.8789 -3.53027 4.99999 1.7768 0. -1
</event>
<event>
 4 80 1 -1 -1 -1
 11 -1 0 0 0 0 0 0 5 5 0 0. 9.
 -11 -1 0 0 0 0 0 0 -4.17518 4.17518 0 0. 9.
 15 1 1 2 0 0 -0.981903 3.6889 2.19333 4.74769 1.7768 0. 1
 -15 1 1 2 0 0 0.981903 -3.6889 -1.36851 4.42749 1.7768 0. -1
</event>
<event>
 4 80 1 -1 -1 -1
 11 -1 0 0 0 0 0 0 5 5 0 0. 9.
 -11 -1 0 0 0 0 0 0 -5 5 0 0. 9.
 15 1 1 2 0 0 1.60321 -4.32462 -0.754735 5 1.7768 0. 1
 -15 1 1 2 0 0 -1.60321 4.32462 0.754736 5 1.7768 0. -1
</event>
<event>
 4 80 1 -1 -1 -1
 11 -1 0 0 0 0 0 0 5 5 0 0. 9.
 -11 -1 0 0 0 0 0 0 -4.99783 4.99783 0 0. 9.
 15 1 1 2 0 0 0.66786 0.799542 4.55588 4.9999 1.7768 0. -1
 -15 1 1 2 0 0 -0.66786 -0.799542 -4.5537 4.99792 1.7768 0. 1
</event>
<event>
 4 80 1 -1 -1 -1
 11 -1 0 0 0 0 0 0 5 5 0 0. 9.
 -11 -1 0 0 0 0 0 0 -5 5 0 0. 9.
 15 1 1 2 0 0 -4.16325 -1.97483 -0.780777 5 1.7768 0. -1
 -15 1 1 2 0 0 4.16325 1.97483 0.780775 5 1.7768 0. 1
</event>
<event>
 4 80 1 -1 -1 -1
 11 -1 0 0 0 0 0 0 5 5 0 0. 9.
 -11 -1 0 0 0 0 0 0 -4.99306 4.99306 0 0. 9.
 15 1 1 2 0 0 3.85305 -2.56681 -0.607296 4.99611 1.7768 0. -1
 -15 1 1 2 0 0 -3.85305 2.56681 0.614236 4.99695 1.7768 0. 1
</event>
<event>
 4 80 1 -1 -1 -1
 11 -1 0 0 0 0 0 0 5 5 0 0. 9.
 -11 -1 0 0 0 0 0 0 -5 5 0 0. 9.
 15 1 1 2 0 0 1.91155 3.31604 2.68182 5 1.7768 0. -1
 -15 1 1 2 0 0 -1.91155 -3.31604 -2.68182 5 1.7768 0. 1
</event>
<event>
 4 80 1 -1 -1 -1
 11 -1 0 0 0 0 0 0 4.99989 4.99989 0 0. 9.
 -11 -1 0 0 0 0 0 0 -5 5 0 0. 9.
 15 1 1 2 0 0 0.988567 3.94339 2.3052 4.99992 1.7768 0. 1
 -15 1 1 2 0 0 -0.988567 -3.94339 -2.3053 4.99997 1.7768 0. -1
</event>
<event>
 4 80 1 -1 -1 -1
 11 -1 0 0 0 0 0 0 5 5 0 0. 9.
 -11 -1 0 0 0 0 0 0 -4.99993 4.99993 0 0. 9.
 15 1 1 2 0 0 -4.42147 1.51239 -0.0720895 4.99996 1.7768 0. 1
 -15 1 1 2 0 0 4.42147 -1.51239 0.0721634 4.99996 1.7768 0. -1
</event>
<event>
 4 80 1 -1 -1 -1
 11 -1 0 0 0 0 0 0 5 5 0 0. 9.
 -11 -1 0 0 0 0 0 0 -5 5 0 0. 9.
 15 1 1 2 0 0 1.17 3.60071 2.74011 5 1.7768 0. -1
 -15 1 1 2 0 0 -1.17 -3.60071 -2.74011 5 1.7768 0. 1
</event>
<event>
 4 80 1 -1 -1 -1
 11 -1 0 0 0 0 0 0 4.60402 4.60402 0 0. 9.
 -11 -1 0 0 0 0 0 0 -4.99999 4.99999 0 0. 9.
 15 1 1 2 0 0 -3.86474 2.01886 0.724932 4.76396 1.7768 0. -1
 -15 1 1 2 0 0 3.86474 -2.01886 -1.1209 4.84006 1.7768 0. 1
</event>
<event>
 4 80 1 -1 -1 -1
 11 -1 0 0 0 0 0 0 5 5 0 0. 9.
 -11 -1 0 0 0 0 0 0 -4.99962 4.99962 0 0. 9.
 15 1 1 2 0 0 -0.940226 0.238102 4.5718 4.99998 1.7768 0. 1
 -15 1 1 2 0 0 0.940226 -0.238102 -4.57142 4.99964 1.7768 0. -1
</event>
<event>
 4 80 1 -1 -1 -1
 11 -1 0 0 0 0 0 0 4.9885 4.9885 0 0. 9.
 -11 -1 0 0 0 0 0 0 -5 5 0 0. 9.
 15 1 1 2 0 0 4.51333 -0.97172 0.680105 4.99346 1.7768 0. -1
 -15 1 1 2 0 0 -4.51333 0.97172 -0.691608 4.99504 1.7768 0. 1
</event>
<event>
 4 80 1 -1 -1 -1
 11 -1 0 0 0 0 0 0 4.99989 4.99989 0 0. 9.
 -11 -1 0 0 0 0 0 0 -4.99902 4.99902 0 0. 9.
 15 1 1 2 0 0 -1.99839 0.395187 -4.20516 4.99908 1.7768 0. -1
 -15 1 1 2 0 0 1.99839 -0.395187 4.20604 4.99982 1.7768 0. 1
</event>
<event>
 4 80 1 -1 -1 -1
 11 -1 0 0 0 0 0 0 5 5 0 0. 9.
 -11 -1 0 0 0 0 0 0 -5 5 0 0. 9.
 15 1 1 2 0 0 1.25229 0.354095 -4.48873 5 1.7768 0. -1
 -15 1 1 2 0 0 -1.25229 -0.354095 4.48873 5 1.7768 0. 1
</event>
<event>
 4 80 1 -1 -1 -1
 11 -1 0 0 0 0 0 0 4.99977 4.99977 0 0. 9.
 -11 -1 0 0 0 0 0 0 -4.99371 4.99371 0 0. 9.
 15 1 1 2 0 0 0.618306 -4.13652 -2.0746 4.99548 1.7768 0. 1
 -15 1 1 2 0 0 -0.618306 4.13652 2.08067 4.998 1.7768 0. -1
</event>
<event>
 4 80 1 -1 -1 -1
 11 -1 0 0 0 0 0 0 4.99852 4.99852 0 0. 9.
 -11 -1 0 0 0 0 0 0 -5 5 0 0. 9.
 15 1 1 2 0 0 -0.891453 -3.22585 -3.26173 4.99974 1.7768 0. 1
 -15 1 1 2 0 0 0.891453 3.22585 3.26025 4.99878 1.7768 0. -1
</event>
<event>
 4 80 1 -1 -1 -1
 11 -1 0 0 0 0 0 0 4.99992 4.99992 0 0. 9.
 -11 -1 0 0 0 0 0 0 -5 5 0 0. 9.
 15 1 1 2 0 0 -0.898847 3.32679 -3.157 4.99999 1.7768 0. 1
 -15 1 1 2 0 0 0.898847 -3.32679 3.15692 4.99993 1.7768 0. -1
</event>
<event>
 4 80 1 -1 -1 -1
 11 -1 0 0 0 0 0 0 4.95997 4.95997 0 0. 9.
 -11 -1 0 0 0 0 0 0 -5 5 0 0. 9.
 15 1 1 2 0 0 -0.948131 4.16578 -1.86106 4.98738 1.7768 0. -1
 -15 1 1 2 0 0 0.948131 -4.16578 1.82103 4.97258 1.7768 0. 1
</event>
<event>
 4 80 1 -1 -1 -1
 11 -1 0 0 0 0 0 0 4.99782 4.99782 0 0. 9.
 -11 -1 0 0 0 0 0 0 -5 5 0 0. 9.
 15 1 1 2 0 0 1.55824 1.19624 -4.24046 4.99983 1.7768 0. 1
 -15 1 1 2 0 0 -1.55824 -1.19624 4.23828 4.99799 1.7768 0. -1
</event>
<event>
 4 80 1 -1 -1 -1
 11 -1 0 0 0 0 0 0 1.78791 1.78791 0 0. 9.
 -11 -1 0 0 0 0 0 0 -5 5 0 0. 9.
 15 1 1 2 0 0 1.76937 0.962192 -0.115014 2.68839 1.7768 0. 1
 -15 1 1 2 0 0 -1.76937 -0.962192 -3.09708 4.09952 1.7768 0. -1
</event>
<event>
 4 80 1 -1 -1 -1
 11 -1 0 0 0 0 0 0 4.99999 4.99999 0 0. 9.
 -11 -1 0 0 0 0 0 0 -5 5 0 0. 9.
 15 1 1 2 0 0 -0.17507 -0.352896 -4.65694 5 1.7768 0. -1
 -15 1 1 2 0 0 0.17507 0.352896 4.65693 4.99999 1.7768 0. 1
</event>
<event>
 4 80 1 -1 -1 -1
 11 -1 0 0 0 0 0 0 5 5 0 0. 9.
 -11 -1 0 0 0 0 0 0 -4.99782 4.99782 0 0. 9.
 15 1 1 2 0 0 1.85773 4.25036 0.562046 4.99903 1.7768 0. -1
 -15 1 1 2 0 0 -1.85773 -4.25036 -0.559866 4.99879 1.7768 0. 1
</event>
<event>
 4 80 1 -1 -1 -1
 11 -1 0 0 0 0 0 0 3.74721 3.74721 0 0. 9.
 -11 -1 0 0 0 0 0 0 -4.99998 4.99998 0 0. 9.
 15 1 1 2 0 0 -3.62284 -0.0795864 0.954172 4.14723 1.7768 0. -1
 -15 1 1 2 0 0 3.62284 0.0795864 -2.20694 4.59996 1.7768 0. 1
</event>
<event>
 4 80 1 -1 -1 -1
 11 -1 0 0 0 0 0 0 5 5 0 0. 9.
 -11 -1 0 0 0 0 0 0 -5 5 0 0. 9.
 15 1 1 2 0 0 3.46017 1.31368 2.85372 5 1.7768 0. -1
 -15 1 1 2 0 0 -3.46017 -1.31368 -2.85372 5 1.7768 0. 1
</event>
<event>
 4 80 1 -1 -1 -1
 11 -1 0 0 0 0 0 0 4.99988 4.99988 0 0. 9.
 -11 -1 0 0 0 0 0 0 -4.61492 4.61492 0 0. 9.
 15 1 1 2 0 0 -0.182612 -1.34014 4.44878 4.97782 1.7768 0. 1
 -15 1 1 2 0 0 0.182612 1.34014 -4.06381 4.63698 1.7768 0. -1
</event>
<event>
 4 80 1 -1 -1 -1
 11 -1 0 0 0 0 0 0 3.20329 3.20329 0 0. 9.
 -11 -1 0 0 0 0 0 0 -4.99996 4.99996 0 0. 9.
 15 1 1 2 0 0 3.00306 -1.79042 -0.0819009 3.92281 1.7768 0. 1
 -15 1 1 2 0 0 -3.00306 1.79042 -1.71477 4.28044 1.7768 0. -1
</event>
<event>
 4 80 1 -1 -1 -1
 11 -1 0 0 0 0 0 0 4.99979 4.99979 0 0. 9.
 -11 -1 0 0 0 0 0 0 -4.83175 4.83175 0 0. 9.
 15 1 1 2 0 0 -3.75993 -0.887142 -2.38126 4.87363 1.7768 0. 1
 -15 1 1 2 0 0 3.75993 0.887142 2.54931 4.9579 1.7768 0. -1
</event>
<event>
 4 80 1 -1 -1 -1
 11 -1 0 0 0 0 0 0 5 5 0 0. 9.
 -11 -1 0 0 0 0 0 0 -5 5 0 0. 9.
 15 1 1 2 0 0 -2.0793 -2.94773 -2.97148 5 1.7768 0. -1
 -15 1 1 2 0 0 2.0793 2.94773 2.97148 5 1.7768 0. 1
</event>
<event>
 4 80 1 -1 -1 -1
 11 -1 0 0 0 0 0 0 5 5 0 0. 9.
 -11 -1 0 0 0 0 0 0 -4.99998 4.99998 0 0. 9.
 15 1 1 2 0 0 0.3639 -1.8857 -4.26073 4.99998 1.7768 0. 1
 -15 1 1 2 0 0 -0.3639 1.8857 4.26075 5 1.7768 0. -1
</event>
<event>
 4 80 1 -1 -1 -1
 11 -1 0 0 0 0 0 0 5 5 0 0. 9.
 -11 -1 0 0 0 0 0 0 -4.99999 4.99999 0 0. 9.
 15 1 1 2 0 0 -4.46655 1.12755 -0.787938 5 1.7768 0. 1
 -15 1 1 2 0 0 4.46655 -1.12755 0.787943 5 1.7768 0. -1
</event>
<event>
 4 80 1 -1 -1 -1
 11 -1 0 0 0 0 0 0 5 5 0 0. 9.
 -11 -1 0 0 0 0 0 0 -5 5 0 0. 9.
 15 1 1 2 0 0 -0.16051 -1.114 -4.53602 5 1.7768 0. 1
 -15 1 1 2 0 0 0.16051 1.114 4.53602 5 1.7768 0. -1
</event>
<event>
 4 80 1 -1 -1 -1
 11 -1 0 0 0 0 0 0 4.9999 4.9999 0 0. 9.
 -11 -1 0 0 0 0 0 0 -5 5 0 0. 9.
 15 1 1 2 0 0 -0.450004 -0.672249 -4.60302 5 1.7768 0. 1
 -15 1 1 2 0 0 0.450004 0.672249 4.60292 4.9999 1.7768 0. -1
</event>
<event>
 4 80 1 -1 -1 -1
 11 -1 0 0 0 0 0 0 4.99999 4.99999 0 0. 9.
 -11 -1 0 0 0 0 0 0 -5 5 0 0. 9.
 15 1 1 2 0 0 -0.558159 -1.64861 -4.33737 5 1.7768 0. 1
 -15 1 1 2 0 0 0.558159 1.64861 4.33736 4.99999 1.7768 0. -1
</event>
<event>
 4 80 1 -1 -1 -1
 11 -1 0 0 0 0 0 0 5 5 0 0. 9.
 -11 -1 0 0 0 0 0 0 -4.99999 4.99999 0 0. 9.
 15 1 1 2 0 0 1.8941 -4.26919 0.169065 4.99999 1.7768 0. -1
 -15 1 1 2 0 0 -1.8941 4.26919 -0.169052 4.99999 1.7768 0. 1
</event>
<event>
 4 80 1 -1 -1 -1
 11 -1 0 0 0 0 0 0 4.99734 4.99734 0 0. 9.
 -11 -1 0 0 0 0 0 0 -3.4126 3.4126 0 0. 9.
 15 1 1 2 0 0 0.681325 0.240458 4.51615 4.90666 1.7768 0. -1
 -15 1 1 2 0 0 -0.681325 -0.240458 -2.93141 3.50328 1.7768 0. 1
</event>
<event>
 4 80 1 -1 -1 -1
 11 -1 0 0 0 0 0 0 4.99147 4.99147 0 0. 9.
 -11 -1 0 0 0 0 0 0 -5 5 0 0. 9.
 15 1 1 2 0 0 0.135803 1.30573 -4.48492 4.99956 1.7768 0. 1
 -15 1 1 2 0 0 -0.135803 -1.30573 4.47639 4.99191 1.7768 0. -1
</event>
<event>
 4 80 1 -1 -1 -1
 11 -1 0 0 0 0 0 0 5 5 0 0. 9.
 -11 -1 0 0 0 0 0 0 -4.03001 4.03001 0 0. 9.
 15 1 1 2 0 0 1.9656 2.02468 -2.53739 4.19035 1.7768 0. 1
 -15 1 1 2 0 0 -1.9656 -2.02468 3.50738 4.83966 1.7768 0. -1
</event>
<event>
 4 80 1 -1 -1 -1
 11 -1 0 0 0 0 0 0 5 5 0 0. 9.
 -11 -1 0 0 0 0 0 0 -5 5 0 0. 9.
 15 1 1 2 0 0 -1.70781 -1.89237 -3.91722 5 1.7768 0. 1
 -15 1 1 2 0 0 1.70781 1.89237 3.91722 5 1.7768 0. -1
</event>
<event>
 4 80 1 -1 -1 -1
 11 -1 0 0 0 0 0 0 4.97213 4.97213 0 0. 9.
 -11 -1 0 0 0 0 0 0 -5 5 0 0. 9.
 15 1 1 2 0 0 -1.70001 -1.74833 -3.98336 4.99716 1.7768 0. -1
 -15 1 1 2 0 0 1.70001 1.74833 3.9555 4.97497 1.7768 0. 1
</event>
<event>
 4 80 1 -1 -1 -1
 11 -1 0 0 0 0 0 0 4.99757 4.99757 0 0. 9.
 -11 -1 0 0 0 0 0 0 -4.99998 4.99998 0 0. 9.
 15 1 1 2 0 0 0.0497972 4.18356 2.07855 4.99827 1.7768 0. 1
 -15 1 1 2 0 0 -0.0497972 -4.18356 -2.08095 4.99928 1.7768 0. -1
</event>
<event>
 4 80 1 -1 -1 -1
 11 -1 0 0 0 0 0 0 5 5 0 0. 9.
 -11 -1 0 0 0 0 0 0 -1.06414 1.06414 0 0. 9.
 15 1 1 2 0 0 -0.507541 -0.254622 3.75125 4.18951 1.7768 0. -1
 -15 1 1 2 0 0 0.507541 0.254622 0.18461 1.87463 1.7768 0. 1
</event>
<event>
 4 80 1 -1 -1 -1
 11 -1 0 0 0 0 0 0 5 5 0 0. 9.
 -11 -1 0 0 0 0 0 0 -4.72765 4.72765 0 0. 9.
 15 1 1 2 0 0 0.0817707 -1.62381 4.36123 4.98212 1.7768 0. -1
 -15 1 1 2 0 0 -0.0817707 1.62381 -4.08888 4.74553 1.7768 0. 1
</event>
<event>
 4 80 1 -1 -1 -1
 11 -1 0 0 0 0 0 0 5 5 0 0. 9.
 -11 -1 0 0 0 0 0 0 -4.99988 4.99988 0 0. 9.
 15 1 1 2 0 0 1.55854 -4.05593 -1.721 4.99992 1.7768 0. 1
 -15 1 1 2 0 0 -1.55854 4.05593 1.72113 4.99996 1.7768 0. -1
</event>
<event>
 4 80 1 -1 -1 -1
 11 -1 0 0 0 0 0 0 0.850601 0.850601 0 0. 9.
 -11 -1 0 0 0 0 0 0 -5 5 0 0. 9.
 15 1 1 2 0 0 -0.454079 -0.224146 -0.775536 2.0039 1.7768 0. -1
 -15 1 1 2 0 0 0.454079 0.224146 -3.37386 3.8467 1.7768 0. 1
</event>
<event>
 4 80 1 -1 -1 -1
 11 -1 0 0 0 0 0 0 4.99809 4.99809 0 0. 9.
 -11 -1 0 0 0 0 0 0 -5 5 0 0. 9.
 15 1 1 2 0 0 4.39583 -1.58408 -0.00778638 4.99905 1.7768 0. 1
 -15 1 1 2 0 0 -4.39583 1.58408 0.00587488 4.99904 1.7768 0. -1
</event>
<event>
 4 80 1 -1 -1 -1
 11 -1 0 0 0 0 0 0 4.6359 4.6359 0 0. 9.
 -11 -1 0 0 0 0 0 0 -4.91957 4.91957 0 0. 9.
 15 1 1 2 0 0 -2.66881 -1.82642 2.89109 4.68769 1.7768 0. 1
 -15 1 1 2 0 0 2.66881 1.82642 -3.17476 4.86777 1.7768 0. -1
</event>
<event>
 4 80 1 -1 -1 -1
 11 -1 0 0 0 0 0 0 4.99889 4.99889 0 0. 9.
 -11 -1 0 0 0 0 0 0 -5 5 0 0. 9.
 15 1 1 2 0 0 -3.52974 -2.49142 -1.78114 4.99964 1.7768 0. 1
 -15 1 1 2 0 0 3.52974 2.49142 1.78003 4.99925 1.7768 0. -1
</event>
<event>
 4 80 1 -1 -1 -1
 11 -1 0 0 0 0 0 0 5 5 0 0. 9.
 -11 -1 0 0 0 0 0 0 -5 5 0 0. 9.
 15 1 1 2 0 0 3.54795 -0.779611 -2.9405 5 1.7768 0. 1
 -15 1 1 2 0 0 -3.54795 0.779611 2.9405 5 1.7768 0. -1
</event>
<event>
 4 80 1 -1 -1 -1
 11 -1 0 0 0 0 0 0 5 5 0 0. 9.
 -11 -1 0 0 0 0 0 0 -2.83199 2.83199 0 0. 9.
 15 1 1 2 0 0 -2.6335 1.462 -0.361543 3.51585 1.7768 0. -1
 -15 1 1 2 0 0 2.6335 -1.462 2.52955 4.31614 1.7768 0. 1
</event>
<event>
 4 80 1 -1 -1 -1
 11 -1 0 0 0 0 0 0 3.53268 3.53268 0 0. 9.
 -11 -1 0 0 0 0 0 0 -5 5 0 0. 9.
 15 1 1 2 0 0 -2.23049 2.97544 0.10182 4.12267 1.7768 0. -1
 -15 1 1 2 0 0 2.23049 -2.97544 -1.56914 4.41001 1.7768 0. 1
</event>
<event>
 4 80 1 -1 -1 -1
 11 -1 0 0 0 0 0 0 5 5 0 0. 9.
 -11 -1 0 0 0 0 0 0 -4.99996 4.99996 0 0. 9.
 15 1 1 2 0 0 -0.707184 -0.196072 -4.61556 4.99996 1.7768 0. 1
 -15 1 1 2 0 0 0.707184 0.196072 4.61559 5 1.7768 0. -1
</event>
<event>
 4 80 1 -1 -1 -1
 11 -1 0 0 0 0 0 0 5 5 0 0. 9.
 -11 -1 0 0 0 0 0 0 -4.18331 4.18331 0 0. 9.
 15 1 1 2 0 0 -1.99934 -2.83507 -1.99363 4.37805 1.7768 0. -1
 -15 1 1 2 0 0 1.99934 2.83507 2.81032 4.80527 1.7768 0. 1
</event>
<event>
 4 80 1 -1 -1 -1
 11 -1 0 0 0 0 0 0 5 5 0 0. 9.
 -11 -1 0 0 0 0 0 0 -5 5 0 0. 9.
 15 1 1 2 0 0 3.57573 -1.34097 2.69411 5 1.7768 0. -1
 -15 1 1 2 0 0 -3.57573 1.34097 -2.69411 5 1.7768 0. 1
</event>
<event>
 4 80 1 -1 -1 -1
 11 -1 0 0 0 0 0 0 5 5 0 0. 9.
 -11 -1 0 0 0 0 0 0 -4.99998 4.99998 0 0. 9.
 15 1 1 2 0 0 4.03072 -1.86595 1.45388 4.99999 1.7768 0. -1
 -15 1 1 2 0 0 -4.03072 1.86595 -1.45386 4.99999 1.7768 0. 1
</event>
<event>
 4 80 1 -1 -1 -1
 11 -1 0 0 0 0 0 0 3.02563 3.02563 0 0. 9.
 -11 -1 0 0 0 0 0 0 -5 5 0 0. 9.
 15 1 1 2 0 0 2.60172 2.01217 0.120471 3.74032 1.7768 0. -1
 -15 1 1 2 0 0 -2.60172 -2.01217 -2.09484 4.28531 1.7768 0. 1
</event>
<event>
 4 80 1 -1 -1 -1
 11 -1 0 0 0 0 0 0 5 5 0 0. 9.
 -11 -1 0 0 0 0 0 0 -5 5 0 0. 9.
 15 1 1 2 0 0 -2.13346 -3.05595 -2.81989 5 1.7768 0. 1
 -15 1 1 2 0 0 2.13346 3.05595 2.81989 5 1.7768 0. -1
</event>
<event>
 4 80 1 -1 -1 -1
 11 -1 0 0 0 0 0 0 4.98885 4.98885 0 0. 9.
 -11 -1 0 0 0 0 0 0 -4.99998 4.99998 0 0. 9.
 15 1 1 2 0 0 -1.38281 -1.83354 4.05798 4.98989 1.7768 0. 1
 -15 1 1 2 0 0 1.38281 1.83354 -4.06911 4.99894 1.7768 0. -1
</event>
<event>
 4 80 1 -1 -1 -1
 11 -1 0 0 0 0 0 0 5 5 0 0. 9.
 -11 -1 0 0 0 0 0 0 -5 5 0 0. 9.
 15 1 1 2 0 0 0.994205 2.20113 -4.00111 5 1.7768 0. 1
 -15 1 1 2 0 0 -0.994205 -2.20113 4.00111 5 1.7768 0. -1
</event>
<event>
 4 80 1 -1 -1 -1
 11 -1 0 0 0 0 0 0 3.59799 3.59799 0 0. 9.
 -11 -1 0 0 0 0 0 0 -5 5 0 0. 9.
 15 1 1 2 0 0 2.45138 -2.96935 -0.622797 4.28624 1.7768 0. 1
 -15 1 1 2 0 0 -2.45138 2.96935 -0.779209 4.31175 1.7768 0. -1
</event>
<event>
 4 80 1 -1 -1 -1
 11 -1 0 0 0 0 0 0 5 5 0 0. 9.
 -11 -1 0 0 0 0 0 0 -5 5 0 0. 9.
 15 1 1 2 0 0 1.88139 4.26866 -0.284993 5 1.7768 0. 1
 -15 1 1 2 0 0 -1.88139 -4.26866 0.284993 5 1.7768 0. -1
</event>
<event>
 4 80 1 -1 -1 -1
 11 -1 0 0 0 0 0 0 5 5 0 0. 9.
 -11 -1 0 0 0 0 0 0 -4.95765 4.95765 0 0. 9.
 15 1 1 2 0 0 -0.45987 -0.442288 -4.58576 4.95923 1.7768 0. -1
 -15 1 1 2 0 0 0.45987 0.442288 4.62811 4.99842 1.7768 0. 1
</event>
<event>
 4 80 1 -1 -1 -1
 11 -1 0 0 0 0 0 0 5 5 0 0. 9.
 -11 -1 0 0 0 0 0 0 -4.98747 4.98747 0 0. 9.
 15 1 1 2 0 0 -2.04254 4.02167 -1.19116 4.99223 1.7768 0. -1
 -15 1 1 2 0 0 2.04254 -4.02167 1.20369 4.99524 1.7768 0. 1
</event>
<event>
 4 80 1 -1 -1 -1
 11 -1 0 0 0 0 0 0 4.99868 4.99868 0 0. 9.
 -11 -1 0 0 0 0 0 0 -4.9759 4.9759 0 0. 9.
 15 1 1 2 0 0 1.85634 -2.04242 -3.74331 4.97871 1.7768 0. -1
 -15 1 1 2 0 0 -1.85634 2.04242 3.76609 4.99587 1.7768 0. 1
</event>
<event>
 4 80 1 -1 -1 -1
 11 -1 0 0 0 0 0 0 4.99884 4.99884 0 0. 9.
 -11 -1 0 0 0 0 0 0 -1.14844 1.14844 0 0. 9.
 15 1 1 2 0 0 -0.0605633 0.215004 3.96695 4.35251 1.7768 0. 1
 -15 1 1 2 0 0 0.0605633 -0.215004 -0.116552 1.79477 1.7768 0. -1
</event>
<event>
 4 80 1 -1 -1 -1
 11 -1 0 0 0 0 0 0 4.97291 4.97291 0 0. 9.
 -11 -1 0 0 0 0 0 0 -5 5 0 0. 9.
 15 1 1 2 0 0 -4.6034 0.609872 0.365421 4.98542 1.7768 0. -1
 -15 1 1 2 0 0 4.6034 -0.609872 -0.392514 4.98748 1.7768 0. 1
</event>
<event>
 4 80 1 -1 -1 -1
 11 -1 0 0 0 0 0 0 5 5 0 0. 9.
 -11 -1 0 0 0 0 0 0 -5 5 0 0. 9.
 15 1 1 2 0 0 -1.35922 2.99701 3.31854 5 1.7768 0. 1
 -15 1 1 2 0 0 1.35922 -2.99701 -3.31854 5 1.7768 0. -1
</event>
<event>
 4 80 1 -1 -1 -1
 11 -1 0 0 0 0 0 0 4.99986 4.99986 0 0. 9.
 -11 -1 0 0 0 0 0 0 -5 5 0 0. 9.
 15 1 1 2 0 0 -3.05616 -3.31895 1.21898 4.99991 1.7768 0. 1
 -15 1 1 2 0 0 3.05616 3.31895 -1.21912 4.99995 1.7768 0. -1
</event>
<event>
 4 80 1 -1 -1 -1
 11 -1 0 0 0 0 0 0 5 5 0 0. 9.
 -11 -1 0 0 0 0 0 0 -4.99998 4.99998 0 0. 9.
 15 1 1 2 0 0 -3.13174 -2.6211 -2.27249 4.99999 1.7768 0. 1
 -15 1 1 2 0 0 3.13174 2.6211 2.27251 5 1.7768 0. -1
</event>
<event>
 4 80 1 -1 -1 -1
 11 -1 0 0 0 0 0 0 3.59313 3.59313 0 0. 9.
 -11 -1 0 0 0 0 0 0 -5 5 0 0. 9.
 15 1 1 2 0 0 -0.227708 -0.569816 3.1474 3.66611 1.7768 0. -1
 -15 1 1 2 0 0 0.227708 0.569816 -4.55426 4.92702 1.7768 0. 1
</event>
<event>
 4 80 1 -1 -1 -1
 11 -1 0 0 0 0 0 0 4.99999 4.99999 0 0. 9.
 -11 -1 0 0 0 0 0 0 -4.99489 4.99489 0 0. 9.
 15 1 1 2 0 0 2.32265 -3.6698 1.72143 4.99832 1.7768 0. -1
 -15 1 1 2 0 0 -2.32265 3.6698 -1.71634 4.99657 1.7768 0. 1
</event>
<event>
 4 80 1 -1 -1 -1
 11 -1 0 0 0 0 0 0 4.99981 4.99981 0 0. 9.
 -11 -1 0 0 0 0 0 0 -4.99954 4.99954 0 0. 9.
 15 1 1 2 0 0 -2.56763 3.1283 2.33681 4.99974 1.7768 0. 1
 -15 1 1 2 0 0 2.56763 -3.1283 -2.33654 4.99961 1.7768 0. -1
</event>
<event>
 4 80 1 -1 -1 -1
 11 -1 0 0 0 0 0 0 4.98695 4.98695 0 0. 9.
 -11 -1 0 0 0 0 0 0 -5 5 0 0. 9.
 15 1 1 2 0 0 0.112644 -2.27551 -4.07917 4.9988 1.7768 0. -1
 -15 1 1 2 0 0 -0.112644 2.27551 4.06612 4.98816 1.7768 0. 1
</event>
<event>
 4 80 1 -1 -1 -1
 11 -1 0 0 0 0 0 0 4.99658 4.99658 0 0. 9.
 -11 -1 0 0 0 0 0 0 -0.639836 0.639836 0 0. 9.
 15 1 1 2 0 0 0.191659 0.0101281 2.10072 2.75819 1.7768 0. 1
 -15 1 1 2 0 0 -0.191659 -0.0101281 2.25602 2.87823 1.7768 0. -1
</event>
<event>
 4 80 1 -1 -1 -1
 11 -1 0 0 0 0 0 0 5 5 0 0. 9.
 -11 -1 0 0 0 0 0 0 -5 5 0 0. 9.
 15 1 1 2 0 0 -2.61623 0.0976022 3.87144 5 1.7768 0. 1
 -15 1 1 2 0 0 2.61623 -0.0976022 -3.87144 5 1.7768 0. -1
</event>
<event>
 4 80 1 -1 -1 -1
 11 -1 0 0 0 0 0 0 4.08595 4.08595 0 0. 9.
 -11 -1 0 0 0 0 0 0 -5 5 0 0. 9.
 15 1 1 2 0 0 -0.0286782 3.75518 1.33245 4.36295 1.7768 0. 1
 -15 1 1 2 0 0 0.0286782 -3.75518 -2.24649 4.723 1.7768 0. -1
</event>
<event>
 4 80 1 -1 -1 -1
 11 -1 0 0 0 0 0 0 4.95823 4.95823 0 0. 9.
 -11 -1 0 0 0 0 0 0 -5 5 0 0. 9.
 15 1 1 2 0 0 2.22448 1.56421 -3.79429 4.99494 1.7768 0. -1
 -15 1 1 2 0 0 -2.22448 -1.56421 3.75252 4.96328 1.7768 0. 1
</event>
<event>
 4 80 1 -1 -1 -1
 11 -1 0 0 0 0 0 0 5 5 0 0. 9.
 -11 -1 0 0 0 0 0 0 -5 5 0 0. 9.
 15 1 1 2 0 0 -0.0442865 -4.67277 -0.0740689 5 1.7768 0. 1
 -15 1 1 2 0 0 0.0442865 4.67277 0.0740712 5 1.7768 0. -1
</event>
<event>
 4 80 1 -1 -1 -1
 11 -1 0 0 0 0 0 0 5 5 0 0. 9.
 -11 -1 0 0 0 0 0 0 -5 5 0 0. 9.
 15 1 1 2 0 0 -4.59037 0.716903 0.506796 5 1.7768 0. -1
 -15 1 1 2 0 0 4.59037 -0.716903 -0.506796 5 1.7768 0. 1
</event>
<event>
 4 80 1 -1 -1 -1
 11 -1 0 0 0 0 0 0 5 5 0 0. 9.
 -11 -1 0 0 0 0 0 0 -5 5 0 0. 9.
 15 1 1 2 0 0 -4.07266 -1.62386 -1.61825 5 1.7768 0. 1
 -15 1 1 2 0 0 4.07266 1.62386 1.61825 5 1.7768 0. -1
</event>
<event>
 4 80 1 -1 -1 -1
 11 -1 0 0 0 0 0 0 4.99585 4.99585 0 0. 9.
 -11 -1 0 0 0 0 0 0 -5 5 0 0. 9.
 15 1 1 2 0 0 -0.588916 -4.59874 0.569198 4.99769 1.7768 0. -1
 -15 1 1 2 0 0 0.588916 4.59874 -0.573345 4.99816 1.7768 0. 1
</event>
<event>
 4 80 1 -1 -1 -1
 11 -1 0 0 0 0 0 0 5 5 0 0. 9.
 -11 -1 0 0 0 0 0 0 -3.96744 3.96744 0 0. 9.
 15 1 1 2 0 0 2.67689 -0.720338 -2.50294 4.13607 1.7768 0. -1
 -15 1 1 2 0 0 -2.67689 0.720338 3.53551 4.83137 1.7768 0. 1
</event>
<event>
 4 80 1 -1 -1 -1
 11 -1 0 0 0 0 0 0 4.99997 4.99997 0 0. 9.
 -11 -1 0 0 0 0 0 0 -5 5 0 0. 9.
 15 1 1 2 0 0 0.0570726 -3.11338 -3.48509 5 1.7768 0. -1
 -15 1 1 2 0 0 -0.0570726 3.11338 3.48506 4.99998 1.7768 0. 1
</event>
<event>
 4 80 1 -1 -1 -1
 11 -1 0 0 0 0 0 0 4.97345 4.97345 0 0. 9.
 -11 -1 0 0 0 0 0 0 -4.92838 4.92838 0 0. 9.
 15 1 1 2 0 0 2.88703 -0.917328 -3.46705 4.93504 1.7768 0. -1
 -15 1 1 2 0 0 -2.88703 0.917328 3.51212 4.9668 1.7768 0. 1
</event>
<event>
 4 80 1 -1 -1 -1
 11 -1 0 0 0 0 0 0 5 5 0 0. 9.
 -11 -1 0 0 0 0 0 0 -5 5 0 0. 9.
 15 1 1 2 0 0 0.669787 3.38397 -3.15316 5 1.7768 0. -1
 -15 1 1 2 0 0 -0.669787 -3.38397 3.15316 5 1.7768 0. 1
</event>
<event>
 4 80 1 -1 -1 -1
 11 -1 0 0 0 0 0 0 5 5 0 0. 9.
 -11 -1 0 0 0 0 0 0 -4.98721 4.98721 0 0. 9.
 15 1 1 2 0 0 -0.994043 0.452204 4.54355 4.99942 1.7768 0. -1
 -15 1 1 2 0 0 0.994043 -0.452204 -4.53076 4.9878 1.7768 0. 1
</event>
<event>
 4 80 1 -1 -1 -1
 11 -1 0 0 0 0 0 0 4.83704 4.83704 0 0. 9.
 -11 -1 0 0 0 0 0 0 -4.99899 4.99899 0 0. 9.
 15 1 1 2 0 0 1.99821 -0.806244 -4.12871 4.98466 1.7768 0. -1
 -15 1 1 2 0 0 -1.99821 0.806244 3.96676 4.85137 1.7768 0. 1
</event>
<event>
 4 80 1 -1 -1 -1
 11 -1 0 0 0 0 0 0 5 5 0 0. 9.
 -11 -1 0 0 0 0 0 0 -5 5 0 0. 9.
 15 1 1 2 0 0 -2.67781 -3.18591 2.1264 5 1.7768 0. -1
 -15 1 1 2 0 0 2.67781 3.18591 -2.1264 5 1.7768 0. 1
</event>
<event>
 4 80 1 -1 -1 -1
 11 -1 0 0 0 0 0 0 5 5 0 0. 9.
 -11 -1 0 0 0 0 0 0 -5 5 0 0. 9.
 15 1 1 2 0 0 2.74862 3.67285 -0.893036 5 1.7768 0. -1
 -15 1 1 2 0 0 -2.74862 -3.67285 0.893035 5 1.7768 0. 1
</event>
<event>
 4 80 1 -1 -1 -1
 11 -1 0 0 0 0 0 0 5 5 0 0. 9.
 -11 -1 0 0 0 0 0 0 -5 5 0 0. 9.
 15 1 1 2 0 0 2.54858 -3.89921 -0.378342 5 1.7768 0. -1
 -15 1 1 2 0 0 -2.54858 3.89921 0.378342 5 1.7768 0. 1
</event>
<event>
 4 80 1 -1 -1 -1
 11 -1 0 0 0 0 0 0 3.75592 3.75592 0 0. 9.
 -11 -1 0 0 0 0 0 0 -5 5 0 0. 9.
 15 1 1 2 0 0 1.10024 -2.79951 -3.21232 4.746 1.7768 0. -1
 -15 1 1 2 0 0 -1.10024 2.79951 1.96824 4.00992 1.7768 0. 1
</event>
<event>
 4 80 1 -1 -1 -1
 11 -1 0 0 0 0 0 0 5 5 0 0. 9.
 -11 -1 0 0 0 0 0 0 -5 5 0 0. 9.
 15 1 1 2 0 0 4.36986 -1.38912 0.903861 5 1.7768 0. 1
 -15 1 1 2 0 0 -4.36986 1.38912 -0.903861 5 1.7768 0. -1
</event>
<event>
 4 80 1 -1 -1 -1
 11 -1 0 0 0 0 0 0 4.65734 4.65734 0 0. 9.
 -11 -1 0 0 0 0 0 0 -4.98814 4.98814 0 0. 9.
 15 1 1 2 0 0 2.43764 3.74809 0.123721 4.81282 1.7768 0. 1
 -15 1 1 2 0 0 -2.43764 -3.74809 -0.454515 4.83265 1.7768 0. -1
</event>
<event>
 4 80 1 -1 -1 -1
 11 -1 0 0 0 0 0 0 5 5 0 0. 9.
 -11 -1 0 0 0 0 0 0 -5 5 0 0. 9.
 15 1 1 2 0 0 3.88546 2.27688 1.2495 5 1.7768 0. -1
 -15 1 1 2 0 0 -3.88546 -2.27688 -1.2495 5 1.7768 0. 1
</event>
<event>
 4 80 1 -1 -1 -1
 11 -1 0 0 0 0 0 0 5 5 0 0. 9.
 -11 -1 0 0 0 0 0 0 -5 5 0 0. 9.
 15 1 1 2 0 0 -2.75855 -0.298706 3.76078 5 1.7768 0. 1
 -15 1 1 2 0 0 2.75855 0.298706 -3.76078 5 1.7768 0. -1
</event>
<event>
 4 80 1 -1 -1 -1
 11 -1 0 0 0 0 0 0 5 5 0 0. 9.
 -11 -1 0 0 0 0 0 0 -4.00184 4.00184 0 0. 9.
 15 1 1 2 0 0 0.823785 1.75551 4.13968 4.9046 1.7768 0. 1
 -15 1 1 2 0 0 -0.823785 -1.75551 -3.14152 4.09723 1.7768 0. -1
</event>
<event>
 4 80 1 -1 -1 -1
 11 -1 0 0 0 0 0 0 3.57275 3.57275 0 0. 9.
 -11 -1 0 0 0 0 0 0 -4.99999 4.99999 0 0. 9.
 15 1 1 2 0 0 1.59627 3.13265 -2.26644 4.54489 1.7768 0. 1
 -15 1 1 2 0 0 -1.59627 -3.13265 0.839204 4.02785 1.7768 0. -1
</event>
<event>
 4 80 1 -1 -1 -1
 11 -1 0 0 0 0 0 0 5 5 0 0. 9.
 -11 -1 0 0 0 0 0 0 -4.41441 4.41441 0 0. 9.
 15 1 1 2 0 0 1.20341 3.24693 2.92916 4.87119 1.7768 0. 1
 -15 1 1 2 0 0 -1.20341 -3.24693 -2.34357 4.54322 1.7768 0. -1
</event>
<event>
 4 80 1 -1 -1 -1
 11 -1 0 0 0 0 0 0 5 5 0 0. 9.
 -11 -1 0 0 0 0 0 0 -4.76401 4.76401 0 0. 9.
 15 1 1 2 0 0 0.200928 -2.61906 3.82886 4.97169 1.7768 0. -1
 -15 1 1 2 0 0 -0.200928 2.61906 -3.59287 4.79232 1.7768 0. 1
</event>
<event>
 4 80 1 -1 -1 -1
 11 -1 0 0 0 0 0 0 5 5 0 0. 9.
 -11 -1 0 0 0 0 0 0 -5 5 0 0. 9.
 15 1 1 2 0 0 -3.14566 -1.51183 -3.10828 5 1.7768 0. -1
 -15 1 1 2 0 0 3.14566 1.51183 3.10829 5 1.7768 0. 1
</event>
<event>
 4 80 1 -1 -1 -1
 11 -1 0 0 0 0 0 0 4.99992 4.99992 0 0. 9.
 -11 -1 0 0 0 0 0 0 -4.99998 4.99998 0 0. 9.
 15 1 1 2 0 0 2.62221 -3.53149 1.5793 4.99994 1.7768 0. -1
 -15 1 1 2 0 0 -2.62221 3.53149 -1.57936 4.99996 1.7768 0. 1
</event>
<event>
 4 80 1 -1 -1 -1
 11 -1 0 0 0 0 0 0 4.74068 4.74068 0 0. 9.
 -11 -1 0 0 0 0 0 0 -5 5 0 0. 9.
 15 1 1 2 0 0 -3.31707 -1.37531 -2.89673 4.94401 1.7768 0. 1
 -15 1 1 2 0 0 3.31707 1.37531 2.63741 4.79667 1.7768 0. -1
</event>
<event>
 4 80 1 -1 -1 -1
 11 -1 0 0 0 0 0 0 5 5 0 0. 9.
 -11 -1 0 0 0 0 0 0 -1.79468 1.79468 0 0. 9.
 15 1 1 2 0 0 -0.521529 -1.05041 3.99249 4.52472 1.7768 0. -1
 -15 1 1 2 0 0 0.521529 1.05041 -0.787175 2.26996 1.7768 0. 1
</event>
<event>
 4 80 1 -1 -1 -1
 11 -1 0 0 0 0 0 0 5 5 0 0. 9.
 -11 -1 0 0 0 0 0 0 -4.991 4.991 0 0. 9.
 15 1 1 2 0 0 4.52862 -0.322335 1.09306 4.99648 1.7768 0. 1
 -15 1 1 2 0 0 -4.52862 0.322335 -1.08406 4.99452 1.7768 0. -1
</event>
<event>
 4 80 1 -1 -1 -1
 11 -1 0 0 0 0 0 0 1.33221 1.33221 0 0. 9.
 -11 -1 0 0 0 0 0 0 -5 5 0 0. 9.
 15 1 1 2 0 0 -0.152708 -1.40911 -3.33353 4.03474 1.7768 0. -1
 -15 1 1 2 0 0 0.152708 1.40911 -0.334256 2.29747 1.7768 0. 1
</event>
<event>
 4 80 1 -1 -1 -1
 11 -1 0 0 0 0 0 0 4.80651 4.80651 0 0. 9.
 -11 -1 0 0 0 0 0 0 -5 5 0 0. 9.
 15 1 1 2 0 0 -2.95887 -2.2224 -2.77698 4.95614 1.7768 0. 1
 -15 1 1 2 0 0 2.95887 2.2224 2.58349 4.85037 1.7768 0. -1
</event>
<event>
 4 80 1 -1 -1 -1
 11 -1 0 0 0 0 0 0 4.52483 4.52483 0 0. 9.
 -11 -1 0 0 0 0 0 0 -5 5 0 0. 9.
 15 1 1 2 0 0 1.6314 4.07343 0.223555 4.73941 1.7768 0. 1
 -15 1 1 2 0 0 -1.6314 -4.07343 -0.698729 4.78542 1.7768 0. -1
</event>
<event>
 4 80 1 -1 -1 -1
 11 -1 0 0 0 0 0 0 5 5 0 0. 9.
 -11 -1 0 0 0 0 0 0 -4.73372 4.73372 0 0. 9.
 15 1 1 2 0 0 -1.73552 -3.70713 -1.80564 4.81383 1.7768 0. 1
 -15 1 1 2 0 0 1.73552 3.70713 2.07192 4.9199 1.7768 0. -1
</event>
<event>
 4 80 1 -1 -1 -1
 11 -1 0 0 0 0 0 0 5 5 0 0. 9.
 -11 -1 0 0 0 0 0 0 -5 5 0 0. 9.
 15 1 1 2 0 0 -2.1493 -3.1556 2.69536 5 1.7768 0. 1
 -15 1 1 2 0 0 2.1493 3.1556 -2.69536 5 1.7768 0. -1
</event>
<event>
 4 80 1 -1 -1 -1
 11 -1 0 0 0 0 0 0 5 5 0 0. 9.
 -11 -1 0 0 0 0 0 0 -4.90154 4.90154 0 0. 9.
 15 1 1 2 0 0 2.29485 -1.50088 -3.66996 4.91379 1.7768 0. -1
 -15 1 1 2 0 0 -2.29485 1.50088 3.76842 4.98775 1.7768 0. 1
</event>
<event>
 4 80 1 -1 -1 -1
 11 -1 0 0 0 0 0 0 5 5 0 0. 9.
 -11 -1 0 0 0 0 0 0 -0.639773 0.639773 0 0. 9.
 15 1 1 2 0 0 -0.052896 -0.00815121 2.48856 3.05835 1.7768 0. 1
 -15 1 1 2 0 0 0.052896 0.00815121 1.87167 2.58142 1.7768 0. -1
</event>
<event>
 4 80 1 -1 -1 -1
 11 -1 0 0 0 0 0 0 4.99985 4.99985 0 0. 9.
 -11 -1 0 0 0 0 0 0 -4.04961 4.04961 0 0. 9.
 15 1 1 2 0 0 -3.94039 -1.24959 0.51533 4.52895 1.7768 0. -1
 -15 1 1 2 0 0 3.94039 1.24959 0.434908 4.52051 1.7768 0. 1
</event>
<event>
 4 80 1 -1 -1 -1
 11 -1 0 0 0 0 0 0 5 5 0 0. 9.
 -11 -1 0 0 0 0 0 0 -4.13195 4.13195 0 0. 9.
 15 1 1 2 0 0 0.410214 -0.826468 -3.66507 4.17633 1.7768 0. 1
 -15 1 1 2 0 0 -0.410214 0.826468 4.53311 4.95562 1.7768 0. -1
</event>
<event>
 4 80 1 -1 -1 -1
 11 -1 0 0 0 0 0 0 4.99371 4.99371 0 0. 9.
 -11 -1 0 0 0 0 0 0 -5 5 0 0. 9.
 15 1 1 2 0 0 4.1566 -0.568957 2.04864 4.99557 1.7768 0. 1
 -15 1 1 2 0 0 -4.1566 0.568957 -2.05493 4.99815 1.7768 0. -1
</event>
<event>
 4 80 1 -1 -1 -1
 11 -1 0 0 0 0 0 0 5 5 0 0. 9.
 -11 -1 0 0 0 0 0 0 -4.9998 4.9998 0 0. 9.
 15 1 1 2 0 0 -2.07781 -2.33543 -3.47406 4.99983 1.7768 0. -1
 -15 1 1 2 0 0 2.07781 2.33543 3.47426 4.99997 1.7768 0. 1
</event>
<event>
 4 80 1 -1 -1 -1
 11 -1 0 0 0 0 0 0 4.98918 4.98918 0 0. 9.
 -11 -1 0 0 0 0 0 0 -5 5 0 0. 9.
 15 1 1 2 0 0 1.17702 -4.36523 1.15546 4.99333 1.7768 0. -1
 -15 1 1 2 0 0 -1.17702 4.36523 -1.16628 4.99585 1.7768 0. 1
</event>
<event>
 4 80 1 -1 -1 -1
 11 -1 0 0 0 0 0 0 0.946861 0.946861 0 0. 9.
 -11 -1 0 0 0 0 0 0 -4.97144 4.97144 0 0. 9.
 15 1 1 2 0 0 1.06147 0.616119 -1.72875 2.76634 1.7768 0. -1
 -15 1 1 2 0 0 -1.06147 -0.616119 -2.29582 3.15196 1.7768 0. 1
</event>
<event>
 4 80 1 -1 -1 -1
 11 -1 0 0 0 0 0 0 4.99939 4.99939 0 0. 9.
 -11 -1 0 0 0 0 0 0 -4.13729 4.13729 0 0. 9.
 15 1 1 2 0 0 2.33021 -3.01243 -1.315 4.40359 1.7768 0. -1
 -15 1 1 2 0 0 -2.33021 3.01243 2.17711 4.73309 1.7768 0. 1
</event>
<event>
 4 80 1 -1 -1 -1
 11 -1 0 0 0 0 0 0 4.55482 4.55482 0 0. 9.
 -11 -1 0 0 0 0 0 0 -4.99999 4.99999 0 0. 9.
 15 1 1 2 0 0 0.945805 3.14099 2.75655 4.6386 1.7768 0. -1
 -15 1 1 2 0 0 -0.945805 -3.14099 -3.20172 4.91621 1.7768 0. 1
</event>
<event>
 4 80 1 -1 -1 -1
 11 -1 0 0 0 0 0 0 4.99992 4.99992 0 0. 9.
 -11 -1 0 0 0 0 0 0 -5 5 0 0. 9.
 15 1 1 2 0 0 2.1232 -4.1468 -0.371499 4.99996 1.7768 0. -1
 -15 1 1 2 0 0 -2.1232 4.1468 0.371422 4.99996 1.7768 0. 1
</event>
<event>
 4 80 1 -1 -1 -1
 11 -1 0 0 0 0 0 0 1.95114 1.95114 0 0. 9.
 -11 -1 0 0 0 0 0 0 -5 5 0 0. 9.
 15 1 1 2 0 0 -1.11894 -2.00213 -2.81129 4.04001 1.7768 0. -1
 -15 1 1 2 0 0 1.11894 2.00213 -0.237566 2.91113 1.7768 0. 1
</event>
<event>
 4 80 1 -1 -1 -1
 11 -1 0 0 0 0 0 0 5 5 0 0. 9.
 -11 -1 0 0 0 0 0 0 -5 5 0 0. 9.
 15 1 1 2 0 0 -0.107523 3.21191 3.39328 5 1.7768 0. 1
 -15 1 1 2 0 0 0.107523 -3.21191 -3.39328 5 1.7768 0. -1
</event>
<event>
 4 80 1 -1 -1 -1
 11 -1 0 0 0 0 0 0 4.99978 4.99978 0 0. 9.
 -11 -1 0 0 0 0 0 0 -4.9944 4.9944 0 0. 9.
 15 1 1 2 0 0 2.77512 1.47874 3.45597 4.99895 1.7768 0. -1
 -15 1 1 2 0 0 -2.77512 -1.47874 -3.4506 4.99523 1.7768 0. 1
</event>
<event>
 4 80 1 -1 -1 -1
 11 -1 0 0 0 0 0 0 4.86944 4.86944 0 0. 9.
 -11 -1 0 0 0 0 0 0 -5 5 0 0. 9.
 15 1 1 2 0 0 -0.970674 1.31175 -4.36991 4.99166 1.7768 0. 1
 -15 1 1 2 0 0 0.970674 -1.31175 4.23935 4.87777 1.7768 0. -1
</event>
<event>
 4 80 1 -1 -1 -1
 11 -1 0 0 0 0 0 0 5 5 0 0. 9.
 -11 -1 0 0 0 0 0 0 -2.70093 2.70093 0 0. 9.
 15 1 1 2 0 0 0.692674 0.0402161 4.44056 4.83298 1.7768 0. 1
 -15 1 1 2 0 0 -0.692674 -0.0402161 -2.14149 2.86795 1.7768 0. -1
</event>
<event>
 4 80 1 -1 -1 -1
 11 -1 0 0 0 0 0 0 5 5 0 0. 9.
 -11 -1 0 0 0 0 0 0 -4.82738 4.82738 0 0. 9.
 15 1 1 2 0 0 1.6203 -2.43371 -3.43998 4.85175 1.7768 0. 1
 -15 1 1 2 0 0 -1.6203 2.43371 3.61259 4.97563 1.7768 0. -1
</event>
<event>
 4 80 1 -1 -1 -1
 11 -1 0 0 0 0 0 0 5 5 0 0. 9.
 -11 -1 0 0 0 0 0 0 -2.33601 2.33601 0 0. 9.
 15 1 1 2 0 0 0.722639 -0.298018 4.35077 4.76424 1.7768 0. -1
 -15 1 1 2 0 0 -0.722639 0.298018 -1.68678 2.57177 1.7768 0. 1
</event>
<event>
 4 80 1 -1 -1 -1
 11 -1 0 0 0 0 0 0 5 5 0 0. 9.
 -11 -1 0 0 0 0 0 0 -4.99997 4.99997 0 0. 9.
 15 1 1 2 0 0 -3.13335 2.54908 2.35085 4.99999 1.7768 0. -1
 -15 1 1 2 0 0 3.13335 -2.54908 -2.35082 4.99998 1.7768 0. 1
</event>
<event>
 4 80 1 -1 -1 -1
 11 -1 0 0 0 0 0 0 5 5 0 0. 9.
 -11 -1 0 0 0 0 0 0 -4.99727 4.99727 0 0. 9.
 15 1 1 2 0 0 3.09657 3.13632 1.55165 4.99906 1.7768 0. -1
 -15 1 1 2 0 0 -3.09657 -3.13632 -1.54892 4.99821 1.7768 0. 1
</event>
<event>
 4 80 1 -1 -1 -1
 11 -1 0 0 0 0 0 0 4.95577 4.95577 0 0. 9.
 -11 -1 0 0 0 0 0 0 -5 5 0 0. 9.
 15 1 1 2 0 0 -2.24584 -2.29929 -3.38229 4.99281 1.7768 0. 1
 -15 1 1 2 0 0 2.24584 2.29929 3.33806 4.96296 1.7768 0. -1
</event>
<event>
 4 80 1 -1 -1 -1
 11 -1 0 0 0 0 0 0 4.99993 4.99993 0 0. 9.
 -11 -1 0 0 0 0 0 0 -5 5 0 0. 9.
 15 1 1 2 0 0 -0.694407 -2.83672 3.64863 4.99994 1.7768 0. 1
 -15 1 1 2 0 0 0.694407 2.83672 -3.6487 4.99999 1.7768 0. -1
</event>
<event>
 4 80 1 -1 -1 -1
 11 -1 0 0 0 0 0 0 1.26363 1.26363 0 0. 9.
 -11 -1 0 0 0 0 0 0 -5 5 0 0. 9.
 15 1 1 2 0 0 -1.70038 -0.492502 -1.66504 3.01063 1.7768 0. -1
 -15 1 1 2 0 0 1.70038 0.492502 -2.07133 3.253 1.7768 0. 1
</event>
<event>
 4 80 1 -1 -1 -1
 11 -1 0 0 0 0 0 0 5 5 0 0. 9.
 -11 -1 0 0 0 0 0 0 -4.99998 4.99998 0 0. 9.
 15 1 1 2 0 0 1.95006 -1.67675 3.90231 5 1.7768 0. -1
 -15 1 1 2 0 0 -1.95006 1.67675 -3.90229 4.99998 1.7768 0. 1
</event>
<event>
 4 80 1 -1 -1 -1
 11 -1 0 0 0 0 0 0 4.62799 4.62799 0 0. 9.
 -11 -1 0 0 0 0 0 0 -5 5 0 0. 9.
 15 1 1 2 0 0 -1.71664 -3.22143 2.39618 4.71422 1.7768 0. -1
 -15 1 1 2 0 0 1.71664 3.22143 -2.7682 4.91377 1.7768 0. 1
</event>
<event>
 4 80 1 -1 -1 -1
 11 -1 0 0 0 0 0 0 5 5 0 0. 9.
 -11 -1 0 0 0 0 0 0 -4.99256 4.99256 0 0. 9.
 15 1 1 2 0 0 -3.69213 -2.75542 0.765915 4.99685 1.7768 0. -1
 -15 1 1 2 0 0 3.69213 2.75542 -0.758472 4.99571 1.7768 0. 1
</event>
<event>
 4 80 1 -1 -1 -1
 11 -1 0 0 0 0 0 0 4.99835 4.99835 0 0. 9.
 -11 -1 0 0 0 0 0 0 -5 5 0 0. 9.
 15 1 1 2 0 0 1.72807 -2.58198 -3.49098 4.99975 1.7768 0. -1
 -15 1 1 2 0 0 -1.72807 2.58198 3.48933 4.9986 1.7768 0. 1
</event>
<event>
 4 80 1 -1 -1 -1
 11 -1 0 0 0 0 0 0 4.48132 4.48132 0 0. 9.
 -11 -1 0 0 0 0 0 0 -4.99968 4.99968 0 0. 9.
 15 1 1 2 0 0 -2.89467 0.715058 -3.48223 4.91671 1.7768 0. -1
 -15 1 1 2 0 0 2.89467 -0.715058 2.96386 4.56428 1.7768 0. 1
</event>
<event>
 4 80 1 -1 -1 -1
 11 -1 0 0 0 0 0 0 4.99974 4.99974 0 0. 9.
 -11 -1 0 0 0 0 0 0 -5 5 0 0. 9.
 15 1 1 2 0 0 -3.68448 -0.90754 2.72787 4.9998 1.7768 0. 1
 -15 1 1 2 0 0 3.68448 0.90754 -2.72813 4.99994 1.7768 0. -1
</event>
<event>
 4 80 1 -1 -1 -1
 11 -1 0 0 0 0 0 0 5 5 0 0. 9.
 -11 -1 0 0 0 0 0 0 -2.35437 2.35437 0 0. 9.
 15 1 1 2 0 0 -1.58 -0.896829 3.79329 4.5659 1.7768 0. 1
 -15 1 1 2 0 0 1.58 0.896829 -1.14766 2.78847 1.7768 0. -1
</event>
<event>
 4 80 1 -1 -1 -1
 11 -1 0 0 0 0 0 0 5 5 0 0. 9.
 -11 -1 0 0 0 0 0 0 -2.31118 2.31118 0 0. 9.
 15 1 1 2 0 0 -0.243414 2.62904 2.62904 4.12804 1.7768 0. 1
 -15 1 1 2 0 0 0.243414 -2.62904 0.0597832 3.18315 1.7768 0. -1
</event>
<event>
 4 80 1 -1 -1 -1
 11 -1 0 0 0 0 0 0 5 5 0 0. 9.
 -11 -1 0 0 0 0 0 0 -4.98881 4.98881 0 0. 9.
 15 1 1 2 0 0 -4.41525 0.311144 -1.47598 4.99275 1.7768 0. 1
 -15 1 1 2 0 0 4.41525 -0.311144 1.48717 4.99607 1.7768 0. -1
</event>
<event>
 4 80 1 -1 -1 -1
 11 -1 0 0 0 0 0 0 5 5 0 0. 9.
 -11 -1 0 0 0 0 0 0 -5 5 0 0. 9.
 15 1 1 2 0 0 -2.79115 -3.12344 -2.07266 5 1.7768 0. 1
 -15 1 1 2 0 0 2.79115 3.12344 2.07266 5 1.7768 0. -1
</event>
<event>
 4 80 1 -1 -1 -1
 11 -1 0 0 0 0 0 0 5 5 0 0. 9.
 -11 -1 0 0 0 0 0 0 -4.96288 4.96288 0 0. 9.
 15 1 1 2 0 0 -4.08668 1.87031 1.2259 4.98594 1.7768 0. -1
 -15 1 1 2 0 0 4.08668 -1.87031 -1.18879 4.97694 1.7768 0. 1
</event>
<event>
 4 80 1 -1 -1 -1
 11 -1 0 0 0 0 0 0 5 5 0 0. 9.
 -11 -1 0 0 0 0 0 0 -4.72458 4.72458 0 0. 9.
 15 1 1 2 0 0 -2.34185 -3.3041 -1.87899 4.80517 1.7768 0. 1
 -15 1 1 2 0 0 2.34185 3.3041 2.15441 4.91941 1.7768 0. -1
</event>
<event>
 4 80 1 -1 -1 -1
 11 -1 0 0 0 0 0 0 5 5 0 0. 9.
 -11 -1 0 0 0 0 0 0 -5 5 0 0. 9.
 15 1 1 2 0 0 -3.91721 -1.39869 -2.13105 5 1.7768 0. 1
 -15 1 1 2 0 0 3.91721 1.39869 2.13105 5 1.7768 0. -1
</event>
<event>
 4 80 1 -1 -1 -1
 11 -1 0 0 0 0 0 0 4.99995 4.99995 0 0. 9.
 -11 -1 0 0 0 0 0 0 -5 5 0 0. 9.
 15 1 1 2 0 0 2.67362 3.04653 2.32645 4.99996 1.7768 0. 1
 -15 1 1 2 0 0 -2.67362 -3.04653 -2.3265 4.99999 1.7768 0. -1
</event>
<event>
 4 80 1 -1 -1 -1
 11 -1 0 0 0 0 0 0 4.96176 4.96176 0 0. 9.
 -11 -1 0 0 0 0 0 0 -5 5 0 0. 9.
 15 1 1 2 0 0 -1.31636 0.26631 4.43595 4.96378 1.7768 0. -1
 -15 1 1 2 0 0 1.31636 -0.26631 -4.47419 4.99798 1.7768 0. 1
</event>
<event>
 4 80 1 -1 -1 -1
 11 -1 0 0 0 0 0 0 4.98949 4.98949 0 0. 9.
 -11 -1 0 0 0 0 0 0 -5 5 0 0. 9.
 15 1 1 2 0 0 0.811997 -2.33576 3.95386 4.99058 1.7768 0. 1
 -15 1 1 2 0 0 -0.811997 2.33576 -3.96437 4.99891 1.7768 0. -1
</event>
<event>
 4 80 1 -1 -1 -1
 11 -1 0 0 0 0 0 0 4.9566 4.9566 0 0. 9.
 -11 -1 0 0 0 0 0 0 -5 5 0 0. 9.
 15 1 1 2 0 0 2.85708 -0.595639 -3.64217 4.99408 1.7768 0. -1
 -15 1 1 2 0 0 -2.85708 0.595639 3.59877 4.96252 1.7768 0. 1
</event>
<event>
 4 80 1 -1 -1 -1
 11 -1 0 0 0 0 0 0 5 5 0 0. 9.
 -11 -1 0 0 0 0 0 0 -5 5 0 0. 9.
 15 1 1 2 0 0 -3.07445 3.39024 -0.946759 5 1.7768 0. -1
 -15 1 1 2 0 0 3.07445 -3.39024 0.94676 5 1.7768 0. 1
</event>
<event>
 4 80 1 -1 -1 -1
 11 -1 0 0 0 0 0 0 5 5 0 0. 9.
 -11 -1 0 0 0 0 0 0 -4.97864 4.97864 0 0. 9.
 15 1 1 2 0 0 -2.53009 2.48154 -3.01852 4.98283 1.7768 0. 1
 -15 1 1 2 0 0 2.53009 -2.48154 3.03988 4.9958 1.7768 0. -1
</event>
<event>
 4 80 1 -1 -1 -1
 11 -1 0 0 0 0 0 0 5 5 0 0. 9.
 -11 -1 0 0 0 0 0 0 -5 5 0 0. 9.
 15 1 1 2 0 0 1.82597 2.34871 3.6044 5 1.7768 0. 1
 -15 1 1 2 0 0 -1.82597 -2.34871 -3.6044 5 1.7768 0. -1
</event>
<event>
 4 80 1 -1 -1 -1
 11 -1 0 0 0 0 0 0 4.96028 4.96028 0 0. 9.
 -11 -1 0 0 0 0 0 0 -4.99999 4.99999 0 0. 9.
 15 1 1 2 0 0 3.3025 2.26971 -2.38324 4.98956 1.7768 0. 1
 -15 1 1 2 0 0 -3.3025 -2.26971 2.34353 4.97071 1.7768 0. -1
</event>
<event>
 4 80 1 -1 -1 -1
 11 -1 0 0 0 0 0 0 3.20167 3.20167 0 0. 9.
 -11 -1 0 0 0 0 0 0 -4.33433 4.33433 0 0. 9.
 15 1 1 2 0 0 -2.68919 1.58825 0.427369 3.61865 1.7768 0. -1
 -15 1 1 2 0 0 2.68919 -1.58825 -1.56003 3.91736 1.7768 0. 1
</event>
<event>
 4 80 1 -1 -1 -1
 11 -1 0 0 0 0 0 0 4.99826 4.99826 0 0. 9.
 -11 -1 0 0 0 0 0 0 -5 5 0 0. 9.
 15 1 1 2 0 0 4.09816 -2.23173 -0.241823 4.99917 1.7768 0. -1
 -15 1 1 2 0 0 -4.09816 2.23173 0.240087 4.99909 1.7768 0. 1
</event>
<event>
 4 80 1 -1 -1 -1
 11 -1 0 0 0 0 0 0 2.53011 2.53011 0 0. 9.
 -11 -1 0 0 0 0 0 0 -5 5 0 0. 9.
 15 1 1 2 0 0 2.7147 -0.895914 -2.45139 4.16405 1.7768 0. 1
 -15 1 1 2 0 0 -2.7147 0.895914 -0.0185017 3.36606 1.7768 0. -1
</event>
<event>
 4 80 1 -1 -1 -1
 11 -1 0 0 0 0 0 0 4.99938 4.99938 0 0. 9.
 -11 -1 0 0 0 0 0 0 -4.96941 4.96941 0 0. 9.
 15 1 1 2 0 0 2.85874 0.0907168 -3.66003 4.97334 1.7768 0. -1
 -15 1 1 2 0 0 -2.85874 -0.0907168 3.69001 4.99545 1.7768 0. 1
</event>
<event>
 4 80 1 -1 -1 -1
 11 -1 0 0 0 0 0 0 4.95874 4.95874 0 0. 9.
 -11 -1 0 0 0 0 0 0 -4.99989 4.99989 0 0. 9.
 15 1 1 2 0 0 3.6269 0.524006 2.84414 4.96748 1.7768 0. 1
 -15 1 1 2 0 0 -3.6269 -0.524006 -2.88529 4.99115 1.7768 0. -1
</event>
<event>
 4 80 1 -1 -1 -1
 11 -1 0 0 0 0 0 0 5 5 0 0. 9.
 -11 -1 0 0 0 0 0 0 -4.99177 4.99177 0 0. 9.
 15 1 1 2 0 0 -3.48219 -2.58752 1.73046 4.99731 1.7768 0. 1
 -15 1 1 2 0 0 3.48219 2.58752 -1.72223 4.99446 1.7768 0. -1
</event>
<event>
 4 80 1 -1 -1 -1
 11 -1 0 0 0 0 0 0 5 5 0 0. 9.
 -11 -1 0 0 0 0 0 0 -5 5 0 0. 9.
 15 1 1 2 0 0 1.57124 -2.25577 -3.77955 5 1.7768 0. -1
 -15 1 1 2 0 0 -1.57124 2.25577 3.77955 5 1.7768 0. 1
</event>
<event>
 4 80 1 -1 -1 -1
 11 -1 0 0 0 0 0 0 4.99996 4.99996 0 0. 9.
 -11 -1 0 0 0 0 0 0 -5 5 0 0. 9.
 15 1 1 2 0 0 -1.30058 0.46807 -4.46449 5 1.7768 0. 1
 -15 1 1 2 0 0 1.30058 -0.46807 4.46444 4.99996 1.7768 0. -1
</event>
<event>
 4 80 1 -1 -1 -1
 11 -1 0 0 0 0 0 0 5 5 0 0. 9.
 -11 -1 0 0 0 0 0 0 -5 5 0 0. 9.
 15 1 1 2 0 0 -0.265542 4.65362 -0.339915 5 1.7768 0. -1
 -15 1 1 2 0 0 0.265542 -4.65362 0.339914 5 1.7768 0. 1
</event>
<event>
 4 80 1 -1 -1 -1
 11 -1 0 0 0 0 0 0 4.999 4.999 0 0. 9.
 -11 -1 0 0 0 0 0 0 -4.98009 4.98009 0 0. 9.
 15 1 1 2 0 0 0.29241 4.25199 1.89965 4.99313 1.7768 0. -1
 -15 1 1 2 0 0 -0.29241 -4.25199 -1.88074 4.98596 1.7768 0. 1
</event>
<event>
 4 80 1 -1 -1 -1
 11 -1 0 0 0 0 0 0 5 5 0 0. 9.
 -11 -1 0 0 0 0 0 0 -5 5 0 0. 9.
 15 1 1 2 0 0 4.42524 -1.28688 0.776796 5 1.7768 0. 1
 -15 1 1 2 0 0 -4.42524 1.28688 -0.776792 5 1.7768 0. -1
</event>
<event>
 4 80 1 -1 -1 -1
 11 -1 0 0 0 0 0 0 4.9755 4.9755 0 0. 9.
 -11 -1 0 0 0 0 0 0 -5 5 0 0. 9.
 15 1 1 2 0 0 2.76789 2.70192 2.58741 4.98136 1.7768 0. 1
 -15 1 1 2 0 0 -2.76789 -2.70192 -2.61191 4.99413 1.7768 0. -1
</event>
<event>
 4 80 1 -1 -1 -1
 11 -1 0 0 0 0 0 0 4.68 4.68 0 0. 9.
 -11 -1 0 0 0 0 0 0 -5 5 0 0. 9.
 15 1 1 2 0 0 2.34609 -0.814319 3.59372 4.71591 1.7768 0. 1
 -15 1 1 2 0 0 -2.34609 0.814319 -3.91372 4.96409 1.7768 0. -1
</event>
<event>
 4 80 1 -1 -1 -1
 11 -1 0 0 0 0 0 0 5 5 0 0. 9.
 -11 -1 0 0 0 0 0 0 -5 5 0 0. 9.
 15 1 1 2 0 0 2.47468 -3.43413 -1.98116 5 1.7768 0. -1
 -15 1 1 2 0 0 -2.47468 3.43413 1.98116 5 1.7768 0. 1
</event>
<event>
 4 80 1 -1 -1 -1
 11 -1 0 0 0 0 0 0 3.48532 3.48532 0 0. 9.
 -11 -1 0 0 0 0 0 0 -4.9995 4.9995 0 0. 9.
 15 1 1 2 0 0 -1.12117 2.98773 1.29666 3.8759 1.7768 0. -1
 -15 1 1 2 0 0 1.12117 -2.98773 -2.81084 4.60891 1.7768 0. 1
</event>
<event>
 4 80 1 -1 -1 -1
 11 -1 0 0 0 0 0 0 1.64606 1.64606 0 0. 9.
 -11 -1 0 0 0 0 0 0 -4.98037 4.98037 0 0. 9.
 15 1 1 2 0 0 0.0541193 -1.83716 -3.15903 4.0639 1.7768 0. 1
 -15 1 1 2 0 0 -0.0541193 1.83716 -0.175281 2.56252 1.7768 0. -1
</event>
<event>
 4 80 1 -1 -1 -1
 11 -1 0 0 0 0 0 0 5 5 0 0. 9.
 -11 -1 0 0 0 0 0 0 -4.83641 4.83641 0 0. 9.
 15 1 1 2 0 0 3.61466 -0.123137 2.90058 4.96509 1.7768 0. -1
 -15 1 1 2 0 0 -3.61466 0.123137 -2.737 4.87133 1.7768 0. 1
</event>
<event>
 4 80 1 -1 -1 -1
 11 -1 0 0 0 0 0 0 5 5 0 0. 9.
 -11 -1 0 0 0 0 0 0 -5 5 0 0. 9.
 15 1 1 2 0 0 -4.27953 0.155675 -1.8718 5 1.7768 0. -1
 -15 1 1 2 0 0 4.27953 -0.155675 1.8718 5 1.7768 0. 1
</event>
<event>
 4 80 1 -1 -1 -1
 11 -1 0 0 0 0 0 0 4.99511 4.99511 0 0. 9.
 -11 -1 0 0 0 0 0 0 -5 5 0 0. 9.
 15 1 1 2 0 0 -2.21192 -0.286881 -4.10646 4.99956 1.7768 0. 1
 -15 1 1 2 0 0 2.21192 0.286881 4.10157 4.99555 1.7768 0. -1
</event>
<event>
 4 80 1 -1 -1 -1
 11 -1 0 0 0 0 0 0 5 5 0 0. 9.
 -11 -1 0 0 0 0 0 0 -5 5 0 0. 9.
 15 1 1 2 0 0 4.36432 1.43336 -0.860526 5 1.7768 0. 1
 -15 1 1 2 0 0 -4.36432 -1.43336 0.860527 5 1.7768 0. -1
</event>
<event>
 4 80 1 -1 -1 -1
 11 -1 0 0 0 0 0 0 5 5 0 0. 9.
 -11 -1 0 0 0 0 0 0 -4.99603 4.99603 0 0. 9.
 15 1 1 2 0 0 -4.07313 -2.25968 -0.352831 4.99788 1.7768 0. 1
 -15 1 1 2 0 0 4.07313 2.25968 0.356796 4.99816 1.7768 0. -1
</event>
<event>
 4 80 1 -1 -1 -1
 11 -1 0 0 0 0 0 0 4.88273 4.88273 0 0. 9.
 -11 -1 0 0 0 0 0 0 -5 5 0 0. 9.
 15 1 1 2 0 0 -0.15339 -4.56085 -0.715246 4.94916 1.7768 0. 1
 -15 1 1 2 0 0 0.15339 4.56085 0.59798 4.93358 1.7768 0. -1
</event>
<event>
 4 80 1 -1 -1 -1
 11 -1 0 0 0 0 0 0 4.99794 4.99794 0 0. 9.
 -11 -1 0 0 0 0 0 0 -5 5 0 0. 9.
 15 1 1 2 0 0 -1.34896 -3.20186 3.12312 4.99832 1.7768 0. 1
 -15 1 1 2 0 0 1.34896 3.20186 -3.12518 4.99961 1.7768 0. -1
</event>
<event>
 4 80 1 -1 -1 -1
 11 -1 0 0 0 0 0 0 5 5 0 0. 9.
 -11 -1 0 0 0 0 0 0 -4.68985 4.68985 0 0. 9.
 15 1 1 2 0 0 2.78046 -0.806313 3.60799 4.95545 1.7768 0. -1
 -15 1 1 2 0 0 -2.78046 0.806313 -3.29785 4.73441 1.7768 0. 1
</event>
<event>
 4 80 1 -1 -1 -1
 11 -1 0 0 0 0 0 0 5 5 0 0. 9.
 -11 -1 0 0 0 0 0 0 -4.99828 4.99828 0 0. 9.
 15 1 1 2 0 0 3.19574 3.32969 -0.729937 4.99901 1.7768 0. -1
 -15 1 1 2 0 0 -3.19574 -3.32969 0.731658 4.99927 1.7768 0. 1
</event>
<event>
 4 80 1 -1 -1 -1
 11 -1 0 0 0 0 0 0 5 5 0 0. 9.
 -11 -1 0 0 0 0 0 0 -5 5 0 0. 9.
 15 1 1 2 0 0 3.08638 -1.51732 3.16453 5 1.7768 0. 1
 -15 1 1 2 0 0 -3.08638 1.51732 -3.16453 5 1.7768 0. -1
</event>
<event>
 4 80 1 -1 -1 -1
 11 -1 0 0 0 0 0 0 5 5 0 0. 9.
 -11 -1 0 0 0 0 0 0 -5 5 0 0. 9.
 15 1 1 2 0 0 2.61787 -3.55253 1.53902 5 1.7768 0. -1
 -15 1 1 2 0 0 -2.61787 3.55253 -1.53902 5 1.7768 0. 1
</event>
<event>
 4 80 1 -1 -1 -1
 11 -1 0 0 0 0 0 0 4.9999 4.9999 0 0. 9.
 -11 -1 0 0 0 0 0 0 -5 5 0 0. 9.
 15 1 1 2 0 0 3.24962 2.14561 -2.58425 4.99997 1.7768 0. 1
 -15 1 1 2 0 0 -3.24962 -2.14561 2.58414 4.99992 1.7768 0. -1
</event>
<event>
 4 80 1 -1 -1 -1
 11 -1 0 0 0 0 0 0 5 5 0 0. 9.
 -11 -1 0 0 0 0 0 0 -5 5 0 0. 9.
 15 1 1 2 0 0 -2.64683 -3.782 -0.730104 5 1.7768 0. 1
 -15 1 1 2 0 0 2.64683 3.782 0.730104 5 1.7768 0. -1
</event>
<event>
 4 80 1 -1 -1 -1
 11 -1 0 0 0 0 0 0 4.98406 4.98406 0 0. 9.
 -11 -1 0 0 0 0 0 0 -4.99946 4.99946 0 0. 9.
 15 1 1 2 0 0 0.570142 4.46884 1.20238 4.98989 1.7768 0. -1
 -15 1 1 2 0 0 -0.570142 -4.46884 -1.21778 4.99363 1.7768 0. 1
</event>
<event>
 4 80 1 -1 -1 -1
 11 -1 0 0 0 0 0 0 4.43486 4.43486 0 0. 9.
 -11 -1 0 0 0 0 0 0 -5 5 0 0. 9.
 15 1 1 2 0 0 -3.55152 -2.3471 0.664835 4.66068 1.7768 0. 1
 -15 1 1 2 0 0 3.55152 2.3471 -1.22998 4.77418 1.7768 0. -1
</event>
<event>
 4 80 1 -1 -1 -1
 11 -1 0 0 0 0 0 0 4.6992 4.6992 0 0. 9.
 -11 -1 0 0 0 0 0 0 -4.70297 4.70297 0 0. 9.
 15 1 1 2 0 0 2.94492 2.15594 -2.37293 4.70204 1.7768 0. -1
 -15 1 1 2 0 0 -2.94492 -2.15594 2.36916 4.70013 1.7768 0. 1
</event>
<event>
 4 80 1 -1 -1 -1
 11 -1 0 0 0 0 0 0 5 5 0 0. 9.
 -11 -1 0 0 0 0 0 0 -5 5 0 0. 9.
 15 1 1 2 0 0 -0.827137 3.95705 -2.34519 5 1.7768 0. -1
 -15 1 1 2 0 0 0.827137 -3.95705 2.34519 5 1.7768 0. 1
</event>
<event>
 4 80 1 -1 -1 -1
 11 -1 0 0 0 0 0 0 5 5 0 0. 9.
 -11 -1 0 0 0 0 0 0 -5 5 0 0. 9.
 15 1 1 2 0 0 1.27916 0.542283 -4.46228 5 1.7768 0. -1
 -15 1 1 2 0 0 -1.27916 -0.542283 4.46228 5 1.7768 0. 1
</event>
<event>
 4 80 1 -1 -1 -1
 11 -1 0 0 0 0 0 0 5 5 0 0. 9.
 -11 -1 0 0 0 0 0 0 -4.99942 4.99942 0 0. 9.
 15 1 1 2 0 0 2.22965 -1.87745 -3.65255 4.9995 1.7768 0. 1
 -15 1 1 2 0 0 -2.22965 1.87745 3.65313 4.99992 1.7768 0. -1
</event>
<event>
 4 80 1 -1 -1 -1
 11 -1 0 0 0 0 0 0 4.99915 4.99915 0 0. 9.
 -11 -1 0 0 0 0 0 0 -4.99991 4.99991 0 0. 9.
 15 1 1 2 0 0 -0.847616 2.19874 -4.03581 4.99984 1.7768 0. -1
 -15 1 1 2 0 0 0.847616 -2.19874 4.03505 4.99923 1.7768 0. 1
</event>
<event>
 4 80 1 -1 -1 -1
 11 -1 0 0 0 0 0 0 0.659515 0.659515 0 0. 9.
 -11 -1 0 0 0 0 0 0 -5 5 0 0. 9.
 15 1 1 2 0 0 -0.364693 -0.0593887 -2.0805 2.76093 1.7768 0. -1
 -15 1 1 2 0 0 0.364693 0.0593887 -2.25999 2.89859 1.7768 0. 1
</event>
<event>
 4 80 1 -1 -1 -1
 11 -1 0 0 0 0 0 0 5 5 0 0. 9.
 -11 -1 0 0 0 0 0 0 -5 5 0 0. 9.
 15 1 1 2 0 0 -1.3654 1.20588 -4.30393 5 1.7768 0. 1
 -15 1 1 2 0 0 1.3654 -1.20588 4.30393 5 1.7768 0. -1
</event>
<event>
 4 80 1 -1 -1 -1
 11 -1 0 0 0 0 0 0 2.42743 2.42743 0 0. 9.
 -11 -1 0 0 0 0 0 0 -4.97986 4.97986 0 0. 9.
 15 1 1 2 0 0 1.4014 0.577237 1.46736 2.75826 1.7768 0. 1
 -15 1 1 2 0 0 -1.4014 -0.577237 -4.01978 4.64903 1.7768 0. -1
</event>
<event>
 4 80 1 -1 -1 -1
 11 -1 0 0 0 0 0 0 4.99801 4.99801 0 0. 9.
 -11 -1 0 0 0 0 0 0 -5 5 0 0. 9.
 15 1 1 2 0 0 4.2314 -0.550464 -1.90483 4.99938 1.7768 0. 1
 -15 1 1 2 0 0 -4.2314 0.550464 1.90285 4.99863 1.7768 0. -1
</event>
<event>
 4 80 1 -1 -1 -1
 11 -1 0 0 0 0 0 0 5 5 0 0. 9.
 -11 -1 0 0 0 0 0 0 -5 5 0 0. 9.
 15 1 1 2 0 0 0.839773 -1.24111 -4.42682 5 1.7768 0. 1
 -15 1 1 2 0 0 -0.839773 1.24111 4.42682 5 1.7768 0. -1
</event>
<event>
 4 80 1 -1 -1 -1
 11 -1 0 0 0 0 0 0 4.99997 4.99997 0 0. 9.
 -11 -1 0 0 0 0 0 0 -4.99583 4.99583 0 0. 9.
 15 1 1 2 0 0 1.12595 0.798277 -4.4607 4.99605 1.7768 0. 1
 -15 1 1 2 0 0 -1.12595 -0.798277 4.46483 4.99974 1.7768 0. -1
</event>
<event>
 4 80 1 -1 -1 -1
 11 -1 0 0 0 0 0 0 5 5 0 0. 9.
 -11 -1 0 0 0 0 0 0 -4.99075 4.99075 0 0. 9.
 15 1 1 2 0 0 -1.81007 -2.82119 -3.24508 4.99237 1.7768 0. 1
 -15 1 1 2 0 0 1.81007 2.82119 3.25433 4.99838 1.7768 0. -1
</event>
<event>
 4 80 1 -1 -1 -1
 11 -1 0 0 0 0 0 0 4.99984 4.99984 0 0. 9.
 -11 -1 0 0 0 0 0 0 -5 5 0 0. 9.
 15 1 1 2 0 0 -4.263 1.07241 -1.58698 4.99995 1.7768 0. -1
 -15 1 1 2 0 0 4.263 -1.07241 1.58682 4.9999 1.7768 0. 1
</event>
<event>
 4 80 1 -1 -1 -1
 11 -1 0 0 0 0 0 0 4.99863 4.99863 0 0. 9.
 -11 -1 0 0 0 0 0 0 -4.99997 4.99997 0 0. 9.
 15 1 1 2 0 0 -0.075602 -3.6462 -2.9221 4.99969 1.7768 0. 1
 -15 1 1 2 0 0 0.075602 3.6462 2.92076 4.99891 1.7768 0. -1
</event>
<event>
 4 80 1 -1 -1 -1
 11 -1 0 0 0 0 0 0 4.95186 4.95186 0 0. 9.
 -11 -1 0 0 0 0 0 0 -4.95951 4.95951 0 0. 9.
 15 1 1 2 0 0 1.09456 2.10574 -3.97483 4.95875 1.7768 0. 1
 -15 1 1 2 0 0 -1.09456 -2.10574 3.96718 4.95262 1.7768 0. -1
</event>
<event>
 4 80 1 -1 -1 -1
 11 -1 0 0 0 0 0 0 4.99787 4.99787 0 0. 9.
 -11 -1 0 0 0 0 0 0 -5 5 0 0. 9.
 15 1 1 2 0 0 3.82691 0.984527 -2.49447 4.99947 1.7768 0. 1
 -15 1 1 2 0 0 -3.82691 -0.984527 2.49235 4.9984 1.7768 0. -1
</event>
<event>
 4 80 1 -1 -1 -1
 11 -1 0 0 0 0 0 0 5 5 0 0. 9.
 -11 -1 0 0 0 0 0 0 -4.99996 4.99996 0 0. 9.
 15 1 1 2 0 0 -1.95696 -3.45261 -2.46814 4.99997 1.7768 0. 1
 -15 1 1 2 0 0 1.95696 3.45261 2.46818 4.99999 1.7768 0. -1
</event>
<event>
 4 80 1 -1 -1 -1
 11 -1 0 0 0 0 0 0 4.97855 4.97855 0 0. 9.
 -11 -1 0 0 0 0 0 0 -5 5 0 0. 9.
 15 1 1 2 0 0 -4.44521 1.29303 0.539935 4.98809 1.7768 0. -1
 -15 1 1 2 0 0 4.44521 -1.29303 -0.561384 4.99046 1.7768 0. 1
</event>
<event>
 4 80 1 -1 -1 -1
 11 -1 0 0 0 0 0 0 3.81353 3.81353 0 0. 9.
 -11 -1 0 0 0 0 0 0 -5 5 0 0. 9.
 15 1 1 2 0 0 -1.7876 2.56117 -3.09692 4.74381 1.7768 0. 1
 -15 1 1 2 0 0 1.7876 -2.56117 1.91044 4.06972 1.7768 0. -1
</event>
<event>
 4 80 1 -1 -1 -1
 11 -1 0 0 0 0 0 0 4.94641 4.94641 0 0. 9.
 -11 -1 0 0 0 0 0 0 -4.97554 4.97554 0 0. 9.
 15 1 1 2 0 0 2.25204 3.97923 -0.754434 4.96314 1.7768 0. 1
 -15 1 1 2 0 0 -2.25204 -3.97923 0.72531 4.9588 1.7768 0. -1
</event>
<event>
 4 80 1 -1 -1 -1
 11 -1 0 0 0 0 0 0 4.99921 4.99921 0 0. 9.
 -11 -1 0 0 0 0 0 0 -3.7911 3.7911 0 0. 9.
 15 1 1 2 0 0 3.72331 -1.3898 0.617052 4.39694 1.7768 0. -1
 -15 1 1 2 0 0 -3.72331 1.3898 0.59106 4.39337 1.7768 0. 1
</event>
<event>
 4 80 1 -1 -1 -1
 11 -1 0 0 0 0 0 0 4.99995 4.99995 0 0. 9.
 -11 -1 0 0 0 0 0 0 -5 5 0 0. 9.
 15 1 1 2 0 0 0.578845 -4.14136 2.08711 4.99997 1.7768 0. 1
 -15 1 1 2 0 0 -0.578845 4.14136 -2.08715 4.99998 1.7768 0. -1
</event>
<event>
 4 80 1 -1 -1 -1
 11 -1 0 0 0 0 0 0 4.9939 4.9939 0 0. 9.
 -11 -1 0 0 0 0 0 0 -5 5 0 0. 9.
 15 1 1 2 0 0 -1.20847 4.42008 -0.905448 4.9975 1.7768 0. 1
 -15 1 1 2 0 0 1.20847 -4.42008 0.899349 4.9964 1.7768 0. -1
</event>
<event>
 4 80 1 -1 -1 -1
 11 -1 0 0 0 0 0 0 5 5 0 0. 9.
 -11 -1 0 0 0 0 0 0 -5 5 0 0. 9.
 15 1 1 2 0 0 1.95664 4.23095 0.335997 5 1.7768 0. -1
 -15 1 1 2 0 0 -1.95664 -4.23095 -0.335995 5 1.7768 0. 1
</event>
<event>
 4 80 1 -1 -1 -1
 11 -1 0 0 0 0 0 0 4.77423 4.77423 0 0. 9.
 -11 -1 0 0 0 0 0 0 -4.97538 4.97538 0 0. 9.
 15 1 1 2 0 0 1.42437 -3.08701 2.90629 4.81277 1.7768 0. 1
 -15 1 1 2 0 0 -1.42437 3.08701 -3.10745 4.93684 1.7768 0. -1
</event>
<event>
 4 80 1 -1 -1 -1
 11 -1 0 0 0 0 0 0 5 5 0 0. 9.
 -11 -1 0 0 0 0 0 0 -4.80713 4.80713 0 0. 9.
 15 1 1 2 0 0 -2.6042 0.156923 3.84835 4.97735 1.7768 0. -1
 -15 1 1 2 0 0 2.6042 -0.156923 -3.65548 4.82978 1.7768 0. 1
</event>
<event>
 4 80 1 -1 -1 -1
 11 -1 0 0 0 0 0 0 5 5 0 0. 9.
 -11 -1 0 0 0 0 0 0 -1.68528 1.68528 0 0. 9.
 15 1 1 2 0 0 -0.540848 2.05935 2.64475 3.83221 1.7768 0. 1
 -15 1 1 2 0 0 0.540848 -2.05935 0.669973 2.85307 1.7768 0. -1
</event>
<event>
 4 80 1 -1 -1 -1
 11 -1 0 0 0 0 0 0 4.99994 4.99994 0 0. 9.
 -11 -1 0 0 0 0 0 0 -4.99983 4.99983 0 0. 9.
 15 1 1 2 0 0 -4.1682 -1.99152 -0.707816 4.99988 1.7768 0. -1
 -15 1 1 2 0 0 4.1682 1.99152 0.707933 4.99989 1.7768 0. 1
</event>
<event>
 4 80 1 -1 -1 -1
 11 -1 0 0 0 0 0 0 5 5 0 0. 9.
 -11 -1 0 0 0 0 0 0 -5 5 0 0. 9.
 15 1 1 2 0 0 3.46702 2.2406 2.19129 5 1.7768 0. -1
 -15 1 1 2 0 0 -3.46702 -2.2406 -2.19129 5 1.7768 0. 1
</event>
<event>
 4 80 1 -1 -1 -1
 11 -1 0 0 0 0 0 0 4.99994 4.99994 0 0. 9.
 -11 -1 0 0 0 0 0 0 -5 5 0 0. 9.
 15 1 1 2 0 0 2.03296 2.20019 -3.58726 4.99999 1.7768 0. -1
 -15 1 1 2 0 0 -2.03296 -2.20019 3.5872 4.99995 1.7768 0. 1
</event>
<event>
 4 80 1 -1 -1 -1
 11 -1 0 0 0 0 0 0 4.49916 4.49916 0 0. 9.
 -11 -1 0 0 0 0 0 0 -5 5 0 0. 9.
 15 1 1 2 0 0 2.86856 3.00747 1.18845 4.67371 1.7768 0. -1
 -15 1 1 2 0 0 -2.86856 -3.00747 -1.68929 4.82544 1.7768 0. 1
</event>
<event>
 4 80 1 -1 -1 -1
 11 -1 0 0 0 0 0 0 4.93946 4.93946 0 0. 9.
 -11 -1 0 0 0 0 0 0 -4.83447 4.83447 0 0. 9.
 15 1 1 2 0 0 -4.41663 0.669316 -0.823534 4.87756 1.7768 0. 1
 -15 1 1 2 0 0 4.41663 -0.669316 0.928523 4.89638 1.7768 0. -1
</event>
<event>
 4 80 1 -1 -1 -1
 11 -1 0 0 0 0 0 0 4.99999 4.99999 0 0. 9.
 -11 -1 0 0 0 0 0 0 -4.39549 4.39549 0 0. 9.
 15 1 1 2 0 0 -2.42001 -0.0469214 3.90987 4.92985 1.7768 0. -1
 -15 1 1 2 0 0 2.42001 0.0469214 -3.30537 4.46563 1.7768 0. 1
</event>
<event>
 4 80 1 -1 -1 -1
 11 -1 0 0 0 0 0 0 4.99963 4.99963 0 0. 9.
 -11 -1 0 0 0 0 0 0 -5 5 0 0. 9.
 15 1 1 2 0 0 1.07201 3.00821 3.41183 4.99969 1.7768 0. 1
 -15 1 1 2 0 0 -1.07201 -3.00821 -3.4122 4.99994 1.7768 0. -1
</event>
<event>
 4 80 1 -1 -1 -1
 11 -1 0 0 0 0 0 0 4.99894 4.99894 0 0. 9.
 -11 -1 0 0 0 0 0 0 -4.99999 4.99999 0 0. 9.
 15 1 1 2 0 0 0.283409 -3.7887 -2.72126 4.99975 1.7768 0. 1
 -15 1 1 2 0 0 -0.283409 3.7887 2.7202 4.99918 1.7768 0. -1
</event>
<event>
 4 80 1 -1 -1 -1
 11 -1 0 0 0 0 0 0 4.99999 4.99999 0 0. 9.
 -11 -1 0 0 0 0 0 0 -5 5 0 0. 9.
 15 1 1 2 0 0 -2.63463 -1.7914 -3.41933 5 1.7768 0. -1
 -15 1 1 2 0 0 2.63463 1.7914 3.41932 4.99999 1.7768 0. 1
</event>
<event>
 4 80 1 -1 -1 -1
 11 -1 0 0 0 0 0 0 4.8321 4.8321 0 0. 9.
 -11 -1 0 0 0 0 0 0 -4.99999 4.99999 0 0. 9.
 15 1 1 2 0 0 3.9854 -0.432213 2.1373 4.87812 1.7768 0. -1
 -15 1 1 2 0 0 -3.9854 0.432213 -2.30519 4.95397 1.7768 0. 1
</event>
<event>
 4 80 1 -1 -1 -1
 11 -1 0 0 0 0 0 0 4.99957 4.99957 0 0. 9.
 -11 -1 0 0 0 0 0 0 -5 5 0 0. 9.
 15 1 1 2 0 0 -0.634928 -4.41337 1.3995 4.99973 1.7768 0. 1
 -15 1 1 2 0 0 0.634928 4.41337 -1.39992 4.99985 1.7768 0. -1
</event>
<event>
 4 80 1 -1 -1 -1
 11 -1 0 0 0 0 0 0 5 5 0 0. 9.
 -11 -1 0 0 0 0 0 0 -4.96807 4.96807 0 0. 9.
 15 1 1 2 0 0 0.105429 -4.47325 -1.27306 4.97991 1.7768 0. -1
 -15 1 1 2 0 0 -0.105429 4.47325 1.30499 4.98816 1.7768 0. 1
</event>
<event>
 4 80 1 -1 -1 -1
 11 -1 0 0 0 0 0 0 4.99999 4.99999 0 0. 9.
 -11 -1 0 0 0 0 0 0 -5 5 0 0. 9.
 15 1 1 2 0 0 -4.38178 -1.07482 -1.21942 5 1.7768 0. -1
 -15 1 1 2 0 0 4.38178 1.07482 1.21941 5 1.7768 0. 1
</event>
<event>
 4 80 1 -1 -1 -1
 11 -1 0 0 0 0 0 0 4.46085 4.46085 0 0. 9.
 -11 -1 0 0 0 0 0 0 -5 5 0 0. 9.
 15 1 1 2 0 0 0.361492 4.2058 0.884303 4.66467 1.7768 0. -1
 -15 1 1 2 0 0 -0.361492 -4.2058 -1.42345 4.79618 1.7768 0. 1
</event>
<event>
 4 80 1 -1 -1 -1
 11 -1 0 0 0 0 0 0 4.98737 4.98737 0 0. 9.
 -11 -1 0 0 0 0 0 0 -5 5 0 0. 9.
 15 1 1 2 0 0 -0.92834 -3.98406 -2.25232 4.99653 1.7768 0. -1
 -15 1 1 2 0 0 0.92834 3.98406 2.23969 4.99085 1.7768 0. 1
</event>
<event>
 4 80 1 -1 -1 -1
 11 -1 0 0 0 0 0 0 4.99998 4.99998 0 0. 9.
 -11 -1 0 0 0 0 0 0 -5 5 0 0. 9.
 15 1 1 2 0 0 -3.94593 0.705131 2.40304 4.99999 1.7768 0. -1
 -15 1 1 2 0 0 3.94593 -0.705131 -2.40306 5 1.7768 0. 1
</event>
<event>
 4 80 1 -1 -1 -1
 11 -1 0 0 0 0 0 0 4.93853 4.93853 0 0. 9.
 -11 -1 0 0 0 0 0 0 -5 5 0 0. 9.
 15 1 1 2 0 0 -4.14294 0.0877319 -2.11962 4.98218 1.7768 0. 1
 -15 1 1 2 0 0 4.14294 -0.0877319 2.05814 4.95634 1.7768 0. -1
</event>
<event>
 4 80 1 -1 -1 -1
 11 -1 0 0 0 0 0 0 4.99993 4.99993 0 0. 9.
 -11 -1 0 0 0 0 0 0 -4.68694 4.68694 0 0. 9.
 15 1 1 2 0 0 4.03818 -1.99161 0.21331 4.84527 1.7768 0. -1
 -15 1 1 2 0 0 -4.03818 1.99161 0.0996833 4.8416 1.7768 0. 1
</event>
<event>
 4 80 1 -1 -1 -1
 11 -1 0 0 0 0 0 0 3.64115 3.64115 0 0. 9.
 -11 -1 0 0 0 0 0 0 -5 5 0 0. 9.
 15 1 1 2 0 0 3.37348 -1.51013 -1.87203 4.50811 1.7768 0. -1
 -15 1 1 2 0 0 -3.37348 1.51013 0.513174 4.13303 1.7768 0. 1
</event>
<event>
 4 80 1 -1 -1 -1
 11 -1 0 0 0 0 0 0 3.35605 3.35605 0 0. 9.
 -11 -1 0 0 0 0 0 0 -5 5 0 0. 9.
 15 1 1 2 0 0 -3.67349 0.198221 -1.1257 4.23778 1.7768 0. 1
 -15 1 1 2 0 0 3.67349 -0.198221 -0.518244 4.11827 1.7768 0. -1
</event>
<event>
 4 80 1 -1 -1 -1
 11 -1 0 0 0 0 0 0 3.42923 3.42923 0 0. 9.
 -11 -1 0 0 0 0 0 0 -5 5 0 0. 9.
 15 1 1 2 0 0 -2.69633 2.24257 0.537446 3.96811 1.7768 0. 1
 -15 1 1 2 0 0 2.69633 -2.24257 -2.10822 4.46112 1.7768 0. -1
</event>
<event>
 4 80 1 -1 -1 -1
 11 -1 0 0 0 0 0 0 5 5 0 0. 9.
 -11 -1 0 0 0 0 0 0 -5 5 0 0. 9.
 15 1 1 2 0 0 -2.9224 2.57912 2.57875 5 1.7768 0. -1
 -15 1 1 2 0 0 2.9224 -2.57912 -2.57875 5 1.7768 0. 1
</event>
<event>
 4 80 1 -1 -1 -1
 11 -1 0 0 0 0 0 0 4.99859 4.99859 0 0. 9.
 -11 -1 0 0 0 0 0 0 -5 5 0 0. 9.
 15 1 1 2 0 0 -3.27445 -1.76888 2.82494 4.9989 1.7768 0. 1
 -15 1 1 2 0 0 3.27445 1.76888 -2.82635 4.99969 1.7768 0. -1
</event>
<event>
 4 80 1 -1 -1 -1
 11 -1 0 0 0 0 0 0 5 5 0 0. 9.
 -11 -1 0 0 0 0 0 0 -5 5 0 0. 9.
 15 1 1 2 0 0 -4.16645 1.53324 -1.46017 5 1.7768 0. 1
 -15 1 1 2 0 0 4.16645 -1.53324 1.46017 5 1.7768 0. -1
</event>
<event>
 4 80 1 -1 -1 -1
 11 -1 0 0 0 0 0 0 4.99893 4.99893 0 0. 9.
 -11 -1 0 0 0 0 0 0 -0.747905 0.747905 0 0. 9.
 15 1 1 2 0 0 0.482036 -0.541281 1.77493 2.61409 1.7768 0. 1
 -15 1 1 2 0 0 -0.482036 0.541281 2.4761 3.13275 1.7768 0. -1
</event>
<event>
 4 80 1 -1 -1 -1
 11 -1 0 0 0 0 0 0 5 5 0 0. 9.
 -11 -1 0 0 0 0 0 0 -4.9929 4.9929 0 0. 9.
 15 1 1 2 0 0 -4.12831 -2.02321 0.82235 4.99703 1.7768 0. -1
 -15 1 1 2 0 0 4.12831 2.02321 -0.815247 4.99587 1.7768 0. 1
</event>
<event>
 4 80 1 -1 -1 -1
 11 -1 0 0 0 0 0 0 5 5 0 0. 9.
 -11 -1 0 0 0 0 0 0 -4.99485 4.99485 0 0. 9.
 15 1 1 2 0 0 2.63321 -3.41089 -1.7998 4.99649 1.7768 0. -1
 -15 1 1 2 0 0 -2.63321 3.41089 1.80495 4.99835 1.7768 0. 1
</event>
<event>
 4 80 1 -1 -1 -1
 11 -1 0 0 0 0 0 0 5 5 0 0. 9.
 -11 -1 0 0 0 0 0 0 -5 5 0 0. 9.
 15 1 1 2 0 0 0.96906 1.04524 -4.45092 5 1.7768 0. 1
 -15 1 1 2 0 0 -0.96906 -1.04524 4.45092 5 1.7768 0. -1
</event>
<event>
 4 80 1 -1 -1 -1
 11 -1 0 0 0 0 0 0 5 5 0 0. 9.
 -11 -1 0 0 0 0 0 0 -4.67837 4.67837 0 0. 9.
 15 1 1 2 0 0 0.19171 -0.869997 4.57239 4.98579 1.7768 0. 1
 -15 1 1 2 0 0 -0.19171 0.869997 -4.25075 4.69258 1.7768 0. -1
</event>
<event>
 4 80 1 -1 -1 -1
 11 -1 0 0 0 0 0 0 4.94839 4.94839 0 0. 9.
 -11 -1 0 0 0 0 0 0 -5 5 0 0. 9.
 15 1 1 2 0 0 -4.61809 -0.507403 -0.0296887 4.97421 1.7768 0. 1
 -15 1 1 2 0 0 4.61809 0.507403 -0.0219219 4.97417 1.7768 0. -1
</event>
<event>
 4 80 1 -1 -1 -1
 11 -1 0 0 0 0 0 0 5 5 0 0. 9.
 -11 -1 0 0 0 0 0 0 -5 5 0 0. 9.
 15 1 1 2 0 0 -0.0871707 -0.152426 4.67027 5 1.7768 0. 1
 -15 1 1 2 0 0 0.0871707 0.152426 -4.67027 5 1.7768 0. -1
</event>
<event>
 4 80 1 -1 -1 -1
 11 -1 0 0 0 0 0 0 4.98467 4.98467 0 0. 9.
 -11 -1 0 0 0 0 0 0 -4.91134 4.91134 0 0. 9.
 15 1 1 2 0 0 -0.631024 -4.33667 -1.41898 4.93722 1.7768 0. 1
 -15 1 1 2 0 0 0.631024 4.33667 1.4923 4.95879 1.7768 0. -1
</event>
<event>
 4 80 1 -1 -1 -1
 11 -1 0 0 0 0 0 0 5 5 0 0. 9.
 -11 -1 0 0 0 0 0 0 -5 5 0 0. 9.
 15 1 1 2 0 0 -1.68057 3.21445 -2.94707 5 1.7768 0. 1
 -15 1 1 2 0 0 1.68057 -3.21445 2.94707 5 1.7768 0. -1
</event>
<event>
 4 80 1 -1 -1 -1
 11 -1 0 0 0 0 0 0 5 5 0 0. 9.
 -11 -1 0 0 0 0 0 0 -5 5 0 0. 9.
 15 1 1 2 0 0 -3.48757 3.09823 -0.283002 5 1.7768 0. -1
 -15 1 1 2 0 0 3.48757 -3.09823 0.283002 5 1.7768 0. 1
</event>
<event>
 4 80 1 -1 -1 -1
 11 -1 0 0 0 0 0 0 5 5 0 0. 9.
 -11 -1 0 0 0 0 0 0 -4.72646 4.72646 0 0. 9.
 15 1 1 2 0 0 -3.86634 -1.14903 2.18836 4.92093 1.7768 0. -1
 -15 1 1 2 0 0 3.86634 1.14903 -1.91483 4.80553 1.7768 0. 1
</event>
<event>
 4 80 1 -1 -1 -1
 11 -1 0 0 0 0 0 0 4.86282 4.86282 0 0. 9.
 -11 -1 0 0 0 0 0 0 -3.46712 3.46712 0 0. 9.
 15 1 1 2 0 0 -0.155368 -1.5621 4.09823 4.73471 1.7768 0. 1
 -15 1 1 2 0 0 0.155368 1.5621 -2.70253 3.59523 1.7768 0. -1
</event>
<event>
 4 80 1 -1 -1 -1
 11 -1 0 0 0 0 0 0 5 5 0 0. 9.
 -11 -1 0 0 0 0 0 0 -5 5 0 0. 9.
 15 1 1 2 0 0 -2.54953 -3.83365 -0.8033 5 1.7768 0. 1
 -15 1 1 2 0 0 2.54953 3.83365 0.8033 5 1.7768 0. -1
</event>
<event>
 4 80 1 -1 -1 -1
 11 -1 0 0 0 0 0 0 4.99921 4.99921 0 0. 9.
 -11 -1 0 0 0 0 0 0 -4.99828 4.99828 0 0. 9.
 15 1 1 2 0 0 -4.3348 1.3944 -1.04592 4.99865 1.7768 0. -1
 -15 1 1 2 0 0 4.3348 -1.3944 1.04685 4.99884 1.7768 0. 1
</event>
<event>
 4 80 1 -1 -1 -1
 11 -1 0 0 0 0 0 0 4.99998 4.99998 0 0. 9.
 -11 -1 0 0 0 0 0 0 -4.73741 4.73741 0 0. 9.
 15 1 1 2 0 0 1.15318 -4.35844 -0.319889 4.85653 1.7768 0. -1
 -15 1 1 2 0 0 -1.15318 4.35844 0.58246 4.88086 1.7768 0. 1
</event>
<event>
 4 80 1 -1 -1 -1
 11 -1 0 0 0 0 0 0 4.97286 4.97286 0 0. 9.
 -11 -1 0 0 0 0 0 0 -2.97277 2.97277 0 0. 9.
 15 1 1 2 0 0 0.735447 -0.910987 4.30888 4.80572 1.7768 0. 1
 -15 1 1 2 0 0 -0.735447 0.910987 -2.30879 3.13991 1.7768 0. -1
</event>
<event>
 4 80 1 -1 -1 -1
 11 -1 0 0 0 0 0 0 1.139 1.139 0 0. 9.
 -11 -1 0 0 0 0 0 0 -4.99986 4.99986 0 0. 9.
 15 1 1 2 0 0 0.0430529 -1.47109 -2.71402 3.56225 1.7768 0. -1
 -15 1 1 2 0 0 -0.0430529 1.47109 -1.14684 2.57662 1.7768 0. 1
</event>
<event>
 4 80 1 -1 -1 -1
 11 -1 0 0 0 0 0 0 4.80529 4.80529 0 0. 9.
 -11 -1 0 0 0 0 0 0 -4.99994 4.99994 0 0. 9.
 15 1 1 2 0 0 -0.0120381 2.1516 3.93323 4.82261 1.7768 0. 1
 -15 1 1 2 0 0 0.0120381 -2.1516 -4.12787 4.98262 1.7768 0. -1
</event>
<event>
 4 80 1 -1 -1 -1
 11 -1 0 0 0 0 0 0 4.99979 4.99979 0 0. 9.
 -11 -1 0 0 0 0 0 0 -4.99999 4.99999 0 0. 9.
 15 1 1 2 0 0 -2.76363 0.234791 3.76134 4.99982 1.7768 0. -1
 -15 1 1 2 0 0 2.76363 -0.234791 -3.76154 4.99997 1.7768 0. 1
</event>
<event>
 4 80 1 -1 -1 -1
 11 -1 0 0 0 0 0 0 5 5 0 0. 9.
 -11 -1 0 0 0 0 0 0 -4.96101 4.96101 0 0. 9.
 15 1 1 2 0 0 -2.48597 -0.500554 3.92039 4.99577 1.7768 0. -1
 -15 1 1 2 0 0 2.48597 0.500554 -3.8814 4.96524 1.7768 0. 1
</event>
<event>
 4 80 1 -1 -1 -1
 11 -1 0 0 0 0 0 0 5 5 0 0. 9.
 -11 -1 0 0 0 0 0 0 -4.99252 4.99252 0 0. 9.
 15 1 1 2 0 0 1.28909 0.644551 -4.43785 4.99294 1.7768 0. 1
 -15 1 1 2 0 0 -1.28909 -0.644551 4.44533 4.99959 1.7768 0. -1
</event>
<event>
 4 80 1 -1 -1 -1
 11 -1 0 0 0 0 0 0 5 5 0 0. 9.
 -11 -1 0 0 0 0 0 0 -4.999 4.999 0 0. 9.
 15 1 1 2 0 0 -3.3673 3.23887 -0.0903972 4.99949 1.7768 0. -1
 -15 1 1 2 0 0 3.3673 -3.23887 0.0914006 4.99951 1.7768 0. 1
</event>
<event>
 4 80 1 -1 -1 -1
 11 -1 0 0 0 0 0 0 5 5 0 0. 9.
 -11 -1 0 0 0 0 0 0 -5 5 0 0. 9.
 15 1 1 2 0 0 3.54191 2.12278 -2.18883 5 1.7768 0. 1
 -15 1 1 2 0 0 -3.54191 -2.12278 2.18883 5 1.7768 0. -1
</event>
<event>
 4 80 1 -1 -1 -1
 11 -1 0 0 0 0 0 0 4.99981 4.99981 0 0. 9.
 -11 -1 0 0 0 0 0 0 -5 5 0 0. 9.
 15 1 1 2 0 0 -4.4398 1.41959 0.337889 4.9999 1.7768 0. 1
 -15 1 1 2 0 0 4.4398 -1.41959 -0.338073 4.99991 1.7768 0. -1
</event>
<event>
 4 80 1 -1 -1 -1
 11 -1 0 0 0 0 0 0 5 5 0 0. 9.
 -11 -1 0 0 0 0 0 0 -5 5 0 0. 9.
 15 1 1 2 0 0 4.39001 0.620901 -1.47802 5 1.7768 0. -1
 -15 1 1 2 0 0 -4.39001 -0.620901 1.47802 5 1.7768 0. 1
</event>
<event>
 4 80 1 -1 -1 -1
 11 -1 0 0 0 0 0 0 4.99872 4.99872 0 0. 9.
 -11 -1 0 0 0 0 0 0 -5 5 0 0. 9.
 15 1 1 2 0 0 -1.30691 -4.48132 0.213006 4.99934 1.7768 0. 1
 -15 1 1 2 0 0 1.30691 4.48132 -0.214281 4.99939 1.7768 0. -1
</event>
<event>
 4 80 1 -1 -1 -1
 11 -1 0 0 0 0 0 0 5 5 0 0. 9.
 -11 -1 0 0 0 0 0 0 -0.707258 0.707258 0 0. 9.
 15 1 1 2 0 0 0.0707897 -0.439769 2.79045 3.33808 1.7768 0. 1
 -15 1 1 2 0 0 -0.0707897 0.439769 1.50229 2.36918 1.7768 0. -1
</event>
<event>
 4 80 1 -1 -1 -1
 11 -1 0 0 0 0 0 0 4.91393 4.91393 0 0. 9.
 -11 -1 0 0 0 0 0 0 -4.99995 4.99995 0 0. 9.
 15 1 1 2 0 0 1.96365 -3.90045 1.48749 4.94366 1.7768 0. 1
 -15 1 1 2 0 0 -1.96365 3.90045 -1.57351 4.97022 1.7768 0. -1
</event>
<event>
 4 80 1 -1 -1 -1
 11 -1 0 0 0 0 0 0 4.99999 4.99999 0 0. 9.
 -11 -1 0 0 0 0 0 0 -5 5 0 0. 9.
 15 1 1 2 0 0 -0.0869836 -3.51644 3.07721 4.99999 1.7768 0. 1
 -15 1 1 2 0 0 0.0869836 3.51644 -3.07723 5 1.7768 0. -1
</event>
<event>
 4 80 1 -1 -1 -1
 11 -1 0 0 0 0 0 0 5 5 0 0. 9.
 -11 -1 0 0 0 0 0 0 -4.99999 4.99999 0 0. 9.
 15 1 1 2 0 0 -4.21624 1.95699 0.485531 5 1.7768 0. 1
 -15 1 1 2 0 0 4.21624 -1.95699 -0.485526 5 1.7768 0. -1
</event>
<event>
 4 80 1 -1 -1 -1
 11 -1 0 0 0 0 0 0 3.85866 3.85866 0 0. 9.
 -11 -1 0 0 0 0 0 0 -5 5 0 0. 9.
 15 1 1 2 0 0 -1.56056 -3.69739 -0.743905 4.45165 1.7768 0. -1
 -15 1 1 2 0 0 1.56056 3.69739 -0.397439 4.40701 1.7768 0. 1
</event>
<event>
 4 80 1 -1 -1 -1
 11 -1 0 0 0 0 0 0 5 5 0 0. 9.
 -11 -1 0 0 0 0 0 0 -5 5 0 0. 9.
 15 1 1 2 0 0 -2.47638 1.71261 -3.57446 5 1.7768 0. -1
 -15 1 1 2 0 0 2.47638 -1.71261 3.57446 5 1.7768 0. 1
</event>
<event>
 4 80 1 -1 -1 -1
 11 -1 0 0 0 0 0 0 5 5 0 0. 9.
 -11 -1 0 0 0 0 0 0 -5 5 0 0. 9.
 15 1 1 2 0 0 0.128767 4.66461 0.259019 5 1.7768 0. 1
 -15 1 1 2 0 0 -0.128767 -4.66461 -0.259019 5 1.7768 0. -1
</event>
<event>
 4 80 1 -1 -1 -1
 11 -1 0 0 0 0 0 0 5 5 0 0. 9.
 -11 -1 0 0 0 0 0 0 -5 5 0 0. 9.
 15 1 1 2 0 0 0.775497 0.0927726 4.60785 5 1.7768 0. 1
 -15 1 1 2 0 0 -0.775497 -0.0927726 -4.60785 5 1.7768 0. -1
</event>
<event>
 4 80 1 -1 -1 -1
 11 -1 0 0 0 0 0 0 4.97592 4.97592 0 0. 9.
 -11 -1 0 0 0 0 0 0 -4.9999 4.9999 0 0. 9.
 15 1 1 2 0 0 1.49766 1.7757 4.02848 4.9782 1.7768 0. 1
 -15 1 1 2 0 0 -1.49766 -1.7757 -4.05246 4.99762 1.7768 0. -1
</event>
<event>
 4 80 1 -1 -1 -1
 11 -1 0 0 0 0 0 0 5 5 0 0. 9.
 -11 -1 0 0 0 0 0 0 -5 5 0 0. 9.
 15 1 1 2 0 0 1.16179 -2.99961 3.3904 5 1.7768 0. 1
 -15 1 1 2 0 0 -1.16179 2.99961 -3.3904 5 1.7768 0. -1
</event>
<event>
 4 80 1 -1 -1 -1
 11 -1 0 0 0 0 0 0 5 5 0 0. 9.
 -11 -1 0 0 0 0 0 0 -4.98861 4.98861 0 0. 9.
 15 1 1 2 0 0 3.27163 3.04195 -1.34643 4.99276 1.7768 0. -1
 -15 1 1 2 0 0 -3.27163 -3.04195 1.35782 4.99585 1.7768 0. 1
</event>
<event>
 4 80 1 -1 -1 -1
 11 -1 0 0 0 0 0 0 5 5 0 0. 9.
 -11 -1 0 0 0 0 0 0 -5 5 0 0. 9.
 15 1 1 2 0 0 -0.516921 1.48308 4.40177 5 1.7768 0. 1
 -15 1 1 2 0 0 0.516921 -1.48308 -4.40177 5 1.7768 0. -1
</event>
<event>
 4 80 1 -1 -1 -1
 11 -1 0 0 0 0 0 0 5 5 0 0. 9.
 -11 -1 0 0 0 0 0 0 -4.99967 4.99967 0 0. 9.
 15 1 1 2 0 0 2.23343 2.82334 2.98029 4.99993 1.7768 0. 1
 -15 1 1 2 0 0 -2.23343 -2.82334 -2.97996 4.99973 1.7768 0. -1
</event>
<event>
 4 80 1 -1 -1 -1
 11 -1 0 0 0 0 0 0 5 5 0 0. 9.
 -11 -1 0 0 0 0 0 0 -5 5 0 0. 9.
 15 1 1 2 0 0 1.54436 -1.75269 4.04787 5 1.7768 0. 1
 -15 1 1 2 0 0 -1.54436 1.75269 -4.04787 5 1.7768 0. -1
</event>
<event>
 4 80 1 -1 -1 -1
 11 -1 0 0 0 0 0 0 4.99947 4.99947 0 0. 9.
 -11 -1 0 0 0 0 0 0 -0.766859 0.766859 0 0. 9.
 15 1 1 2 0 0 0.732645 -0.334136 1.87104 2.70313 1.7768 0. 1
 -15 1 1 2 0 0 -0.732645 0.334136 2.36157 3.0632 1.7768 0. -1
</event>
<event>
 4 80 1 -1 -1 -1
 11 -1 0 0 0 0 0 0 4.78658 4.78658 0 0. 9.
 -11 -1 0 0 0 0 0 0 -4.99993 4.99993 0 0. 9.
 15 1 1 2 0 0 0.771249 -4.24225 -1.58463 4.92548 1.7768 0. -1
 -15 1 1 2 0 0 -0.771249 4.24225 1.37128 4.86104 1.7768 0. 1
</event>
<event>
 4 80 1 -1 -1 -1
 11 -1 0 0 0 0 0 0 5 5 0 0. 9.
 -11 -1 0 0 0 0 0 0 -4.97278 4.97278 0 0. 9.
 15 1 1 2 0 0 -3.22645 -0.152671 -3.34392 4.97723 1.7768 0. 1
 -15 1 1 2 0 0 3.22645 0.152671 3.37114 4.99555 1.7768 0. -1
</event>
<event>
 4 80 1 -1 -1 -1
 11 -1 0 0 0 0 0 0 4.98586 4.98586 0 0. 9.
 -11 -1 0 0 0 0 0 0 -5 5 0 0. 9.
 15 1 1 2 0 0 -2.39265 -3.93562 -0.753865 4.99399 1.7768 0. 1
 -15 1 1 2 0 0 2.39265 3.93562 0.739724 4.99187 1.7768 0. -1
</event>
<event>
 4 80 1 -1 -1 -1
 11 -1 0 0 0 0 0 0 5 5 0 0. 9.
 -11 -1 0 0 0 0 0 0 -4.9788 4.9788 0 0. 9.
 15 1 1 2 0 0 -1.27654 2.97993 3.36124 4.99652 1.7768 0. 1
 -15 1 1 2 0 0 1.27654 -2.97993 -3.34004 4.98228 1.7768 0. -1
</event>
<event>
 4 80 1 -1 -1 -1
 11 -1 0 0 0 0 0 0 5 5 0 0. 9.
 -11 -1 0 0 0 0 0 0 -5 5 0 0. 9.
 15 1 1 2 0 0 -2.0072 4.08283 1.06953 5 1.7768 0. 1
 -15 1 1 2 0 0 2.0072 -4.08283 -1.06953 5 1.7768 0. -1
</event>
<event>
 4 80 1 -1 -1 -1
 11 -1 0 0 0 0 0 0 5 5 0 0. 9.
 -11 -1 0 0 0 0 0 0 -4.98553 4.98553 0 0. 9.
 15 1 1 2 0 0 -3.91101 -2.30764 -1.06456 4.99121 1.7768 0. 1
 -15 1 1 2 0 0 3.91101 2.30764 1.07902 4.99432 1.7768 0. -1
</event>
<event>
 4 80 1 -1 -1 -1
 11 -1 0 0 0 0 0 0 4.93826 4.93826 0 0. 9.
 -11 -1 0 0 0 0 0 0 -4.99527 4.99527 0 0. 9.
 15 1 1 2 0 0 -4.20562 -1.95524 -0.0346964 4.9668 1.7768 0. -1
 -15 1 1 2 0 0 4.20562 1.95524 -0.0223145 4.96673 1.7768 0. 1
</event>
<event>
 4 80 1 -1 -1 -1
 11 -1 0 0 0 0 0 0 3.41072 3.41072 0 0. 9.
 -11 -1 0 0 0 0 0 0 -5 5 0 0. 9.
 15 1 1 2 0 0 1.8227 0.191883 2.51095 3.58074 1.7768 0. -1
 -15 1 1 2 0 0 -1.8227 -0.191883 -4.10024 4.82998 1.7768 0. 1
</event>
<event>
 4 80 1 -1 -1 -1
 11 -1 0 0 0 0 0 0 4.32547 4.32547 0 0. 9.
 -11 -1 0 0 0 0 0 0 -5 5 0 0. 9.
 15 1 1 2 0 0 1.3372 0.279675 -4.42268 4.95824 1.7768 0. 1
 -15 1 1 2 0 0 -1.3372 -0.279675 3.74815 4.36723 1.7768 0. -1
</event>
<event>
 4 80 1 -1 -1 -1
 11 -1 0 0 0 0 0 0 5 5 0 0. 9.
 -11 -1 0 0 0 0 0 0 -3.15635 3.15635 0 0. 9.
 15 1 1 2 0 0 -1.35534 1.94092 -1.79808 3.46337 1.7768 0. 1
 -15 1 1 2 0 0 1.35534 -1.94092 3.64173 4.69298 1.7768 0. -1
</event>
<event>
 4 80 1 -1 -1 -1
 11 -1 0 0 0 0 0 0 4.77377 4.77377 0 0. 9.
 -11 -1 0 0 0 0 0 0 -5 5 0 0. 9.
 15 1 1 2 0 0 -2.43598 -3.1475 -2.32059 4.93798 1.7768 0. 1
 -15 1 1 2 0 0 2.43598 3.1475 2.09435 4.83579 1.7768 0. -1
</event>
<event>
 4 80 1 -1 -1 -1
 11 -1 0 0 0 0 0 0 5 5 0 0. 9.
 -11 -1 0 0 0 0 0 0 -4.99995 4.99995 0 0. 9.
 15 1 1 2 0 0 1.06526 -2.38203 3.87729 4.99999 1.7768 0. -1
 -15 1 1 2 0 0 -1.06526 2.38203 -3.87724 4.99996 1.7768 0. 1
</event>
<event>
 4 80 1 -1 -1 -1
 11 -1 0 0 0 0 0 0 5 5 0 0. 9.
 -11 -1 0 0 0 0 0 0 -5 5 0 0. 9.
 15 1 1 2 0 0 0.0566768 1.04217 -4.55554 5 1.7768 0. -1
 -15 1 1 2 0 0 -0.0566768 -1.04217 4.55554 5 1.7768 0. 1
</event>
<event>
 4 80 1 -1 -1 -1
 11 -1 0 0 0 0 0 0 4.69732 4.69732 0 0. 9.
 -11 -1 0 0 0 0 0 0 -4.99999 4.99999 0 0. 9.
 15 1 1 2 0 0 -2.21479 0.51498 -4.0466 4.97023 1.7768 0. -1
 -15 1 1 2 0 0 2.21479 -0.51498 3.74393 4.72707 1.7768 0. 1
</event>
<event>
 4 80 1 -1 -1 -1
 11 -1 0 0 0 0 0 0 5 5 0 0. 9.
 -11 -1 0 0 0 0 0 0 -5 5 0 0. 9.
 15 1 1 2 0 0 1.48157 -2.23438 -3.82816 5 1.7768 0. -1
 -15 1 1 2 0 0 -1.48157 2.23438 3.82816 5 1.7768 0. 1
</event>
<event>
 4 80 1 -1 -1 -1
 11 -1 0 0 0 0 0 0 1.56113 1.56113 0 0. 9.
 -11 -1 0 0 0 0 0 0 -4.37573 4.37573 0 0. 9.
 15 1 1 2 0 0 1.46989 -0.502954 -0.132536 2.36407 1.7768 0. 1
 -15 1 1 2 0 0 -1.46989 0.502954 -2.68207 3.57278 1.7768 0. -1
</event>
<event>
 4 80 1 -1 -1 -1
 11 -1 0 0 0 0 0 0 5 5 0 0. 9.
 -11 -1 0 0 0 0 0 0 -2.87612 2.87612 0 0. 9.
 15 1 1 2 0 0 0.170566 1.46935 -2.05949 3.09634 1.7768 0. -1
 -15 1 1 2 0 0 -0.170566 -1.46935 4.18336 4.77979 1.7768 0. 1
</event>
<event>
 4 80 1 -1 -1 -1
 11 -1 0 0 0 0 0 0 1.65526 1.65526 0 0. 9.
 -11 -1 0 0 0 0 0 0 -4.75287 4.75287 0 0. 9.
 15 1 1 2 0 0 -0.0565658 0.56789 -3.94055 4.36021 1.7768 0. -1
 -15 1 1 2 0 0 0.0565658 -0.56789 0.842947 2.04792 1.7768 0. 1
</event>
<event>
 4 80 1 -1 -1 -1
 11 -1 0 0 0 0 0 0 5 5 0 0. 9.
 -11 -1 0 0 0 0 0 0 -4.99857 4.99857 0 0. 9.
 15 1 1 2 0 0 -3.64923 -2.30806 1.78709 4.99954 1.7768 0. -1
 -15 1 1 2 0 0 3.64923 2.30806 -1.78566 4.99903 1.7768 0. 1
</event>
<event>
 4 80 1 -1 -1 -1
 11 -1 0 0 0 0 0 0 5 5 0 0. 9.
 -11 -1 0 0 0 0 0 0 -5 5 0 0. 9.
 15 1 1 2 0 0 0.76111 4.51864 -0.919172 5 1.7768 0. -1
 -15 1 1 2 0 0 -0.76111 -4.51864 0.919172 5 1.7768 0. 1
</event>
<event>
 4 80 1 -1 -1 -1
 11 -1 0 0 0 0 0 0 5 5 0 0. 9.
 -11 -1 0 0 0 0 0 0 -5 5 0 0. 9.
 15 1 1 2 0 0 -4.34321 1.52356 0.810883 5 1.7768 0. 1
 -15 1 1 2 0 0 4.34321 -1.52356 -0.810884 5 1.7768 0. -1
</event>
<event>
 4 80 1 -1 -1 -1
 11 -1 0 0 0 0 0 0 5 5 0 0. 9.
 -11 -1 0 0 0 0 0 0 -5 5 0 0. 9.
 15 1 1 2 0 0 3.99703 -2.01373 1.34571 5 1.7768 0. 1
 -15 1 1 2 0 0 -3.99703 2.01373 -1.34571 5 1.7768 0. -1
</event>
<event>
 4 80 1 -1 -1 -1
 11 -1 0 0 0 0 0 0 5 5 0 0. 9.
 -11 -1 0 0 0 0 0 0 -4.99162 4.99162 0 0. 9.
 15 1 1 2 0 0 -0.324983 -0.0387646 4.66179 4.99971 1.7768 0. 1
 -15 1 1 2 0 0 0.324983 0.0387646 -4.65341 4.9919 1.7768 0. -1
</event>
<event>
 4 80 1 -1 -1 -1
 11 -1 0 0 0 0 0 0 4.95513 4.95513 0 0. 9.
 -11 -1 0 0 0 0 0 0 -4.99995 4.99995 0 0. 9.
 15 1 1 2 0 0 1.71514 -0.938813 4.196 4.95855 1.7768 0. -1
 -15 1 1 2 0 0 -1.71514 0.938813 -4.24082 4.99653 1.7768 0. 1
</event>
<event>
 4 80 1 -1 -1 -1
 11 -1 0 0 0 0 0 0 5 5 0 0. 9.
 -11 -1 0 0 0 0 0 0 -4.99998 4.99998 0 0. 9.
 15 1 1 2 0 0 -3.64781 -1.39431 -2.5674 4.99999 1.7768 0. -1
 -15 1 1 2 0 0 3.64781 1.39431 2.56741 5 1.7768 0. 1
</event>
<event>
 4 80 1 -1 -1 -1
 11 -1 0 0 0 0 0 0 4.99494 4.99494 0 0. 9.
 -11 -1 0 0 0 0 0 0 -5 5 0 0. 9.
 15 1 1 2 0 0 -1.69605 1.06195 4.21797 4.99533 1.7768 0. 1
 -15 1 1 2 0 0 1.69605 -1.06195 -4.22303 4.99961 1.7768 0. -1
</event>
<event>
 4 80 1 -1 -1 -1
 11 -1 0 0 0 0 0 0 4.9127 4.9127 0 0. 9.
 -11 -1 0 0 0 0 0 0 -4.99725 4.99725 0 0. 9.
 15 1 1 2 0 0 1.30202 -3.86172 2.14507 4.93631 1.7768 0. 1
 -15 1 1 2 0 0 -1.30202 3.86172 -2.22962 4.97363 1.7768 0. -1
</event>
<event>
 4 80 1 -1 -1 -1
 11 -1 0 0 0 0 0 0 5 5 0 0. 9.
 -11 -1 0 0 0 0 0 0 -4.99247 4.99247 0 0. 9.
 15 1 1 2 0 0 0.812615 -3.13557 3.36717 4.99877 1.7768 0. 1
 -15 1 1 2 0 0 -0.812615 3.13557 -3.35964 4.9937 1.7768 0. -1
</event>
<event>
 4 80 1 -1 -1 -1
 11 -1 0 0 0 0 0 0 5 5 0 0. 9.
 -11 -1 0 0 0 0 0 0 -5 5 0 0. 9.
 15 1 1 2 0 0 2.4463 -2.1298 3.36479 5 1.7768 0. 1
 -15 1 1 2 0 0 -2.4463 2.1298 -3.36479 5 1.7768 0. -1
</event>
<event>
 4 80 1 -1 -1 -1
 11 -1 0 0 0 0 0 0 4.87417 4.87417 0 0. 9.
 -11 -1 0 0 0 0 0 0 -5 5 0 0. 9.
 15 1 1 2 0 0 2.95049 0.0194336 3.47395 4.89202 1.7768 0. -1
 -15 1 1 2 0 0 -2.95049 -0.0194336 -3.59977 4.98216 1.7768 0. 1
</event>
<event>
 4 80 1 -1 -1 -1
 11 -1 0 0 0 0 0 0 4.98028 4.98028 0 0. 9.
 -11 -1 0 0 0 0 0 0 -4.99998 4.99998 0 0. 9.
 15 1 1 2 0 0 1.36382 1.66764 -4.14538 4.99829 1.7768 0. -1
 -15 1 1 2 0 0 -1.36382 -1.66764 4.12567 4.98196 1.7768 0. 1
</event>
<event>
 4 80 1 -1 -1 -1
 11 -1 0 0 0 0 0 0 4.79025 4.79025 0 0. 9.
 -11 -1 0 0 0 0 0 0 -5 5 0 0. 9.
 15 1 1 2 0 0 -0.105435 -4.48536 -0.919906 4.91259 1.7768 0. -1
 -15 1 1 2 0 0 0.105435 4.48536 0.710157 4.87766 1.7768 0. 1
</event>
<event>
 4 80 1 -1 -1 -1
 11 -1 0 0 0 0 0 0 4.47226 4.47226 0 0. 9.
 -11 -1 0 0 0 0 0 0 -5 5 0 0. 9.
 15 1 1 2 0 0 -1.98662 -2.58088 -3.20033 4.89973 1.7768 0. 1
 -15 1 1 2 0 0 1.98662 2.58088 2.67259 4.57253 1.7768 0. -1
</event>
<event>
 4 80 1 -1 -1 -1
 11 -1 0 0 0 0 0 0 4.99937 4.99937 0 0. 9.
 -11 -1 0 0 0 0 0 0 -5 5 0 0. 9.
 15 1 1 2 0 0 1.51037 3.2844 -2.96184 4.99987 1.7768 0. -1
 -15 1 1 2 0 0 -1.51037 -3.2844 2.96122 4.9995 1.7768 0. 1
</event>
<event>
 4 80 1 -1 -1 -1
 11 -1 0 0 0 0 0 0 4.99606 4.99606 0 0. 9.
 -11 -1 0 0 0 0 0 0 -4.29967 4.29967 0 0. 9.
 15 1 1 2 0 0 -0.95687 0.0848568 4.53139 4.96125 1.7768 0. 1
 -15 1 1 2 0 0 0.95687 -0.0848568 -3.835 4.33448 1.7768 0. -1
</event>
<event>
 4 80 1 -1 -1 -1
 11 -1 0 0 0 0 0 0 4.99974 4.99974 0 0. 9.
 -11 -1 0 0 0 0 0 0 -5 5 0 0. 9.
 15 1 1 2 0 0 0.638846 4.33359 1.62863 4.99983 1.7768 0. 1
 -15 1 1 2 0 0 -0.638846 -4.33359 -1.62889 4.99991 1.7768 0. -1
</event>
<event>
 4 80 1 -1 -1 -1
 11 -1 0 0 0 0 0 0 4.99999 4.99999 0 0. 9.
 -11 -1 0 0 0 0 0 0 -4.99998 4.99998 0 0. 9.
 15 1 1 2 0 0 -2.24465 0.637175 -4.04939 4.99998 1.7768 0. -1
 -15 1 1 2 0 0 2.24465 -0.637175 4.04941 4.99999 1.7768 0. 1
</event>
<event>
 4 80 1 -1 -1 -1
 11 -1 0 0 0 0 0 0 4.58367 4.58367 0 0. 9.
 -11 -1 0 0 0 0 0 0 -4.99794 4.99794 0 0. 9.
 15 1 1 2 0 0 -4.41834 -0.0551674 -0.683381 4.81139 1.7768 0. -1
 -15 1 1 2 0 0 4.41834 0.0551674 0.269114 4.77021 1.7768 0. 1
</event>
<event>
 4 80 1 -1 -1 -1
 11 -1 0 0 0 0 0 0 4.76633 4.76633 0 0. 9.
 -11 -1 0 0 0 0 0 0 -3.00341 3.00341 0 0. 9.
 15 1 1 2 0 0 -1.38915 2.83575 -0.236885 3.63112 1.7768 0. 1
 -15 1 1 2 0 0 1.38915 -2.83575 1.99981 4.13862 1.7768 0. -1
</event>
<event>
 4 80 1 -1 -1 -1
 11 -1 0 0 0 0 0 0 4.11257 4.11257 0 0. 9.
 -11 -1 0 0 0 0 0 0 -5 5 0 0. 9.
 15 1 1 2 0 0 1.09357 3.95948 -1.17638 4.62763 1.7768 0. -1
 -15 1 1 2 0 0 -1.09357 -3.95948 0.288944 4.48493 1.7768 0. 1
</event>
<event>
 4 80 1 -1 -1 -1
 11 -1 0 0 0 0 0 0 1.92209 1.92209 0 0. 9.
 -11 -1 0 0 0 0 0 0 -5 5 0 0. 9.
 15 1 1 2 0 0 0.217333 -0.435756 -4.32237 4.69869 1.7768 0. -1
 -15 1 1 2 0 0 -0.217333 0.435756 1.24446 2.2234 1.7768 0. 1
</event>
<event>
 4 80 1 -1 -1 -1
 11 -1 0 0 0 0 0 0 5 5 0 0. 9.
 -11 -1 0 0 0 0 0 0 -4.99929 4.99929 0 0. 9.
 15 1 1 2 0 0 -2.6412 3.79242 -0.692704 4.9996 1.7768 0. -1
 -15 1 1 2 0 0 2.6412 -3.79242 0.693414 4.99969 1.7768 0. 1
</event>
<event>
 4 80 1 -1 -1 -1
 11 -1 0 0 0 0 0 0 4.91709 4.91709 0 0. 9.
 -11 -1 0 0 0 0 0 0 -5 5 0 0. 9.
 15 1 1 2 0 0 -4.11452 2.08086 -0.451927 4.96198 1.7768 0. -1
 -15 1 1 2 0 0 4.11452 -2.08086 0.369014 4.95511 1.7768 0. 1
</event>
<event>
 4 80 1 -1 -1 -1
 11 -1 0 0 0 0 0 0 4.99995 4.99995 0 0. 9.
 -11 -1 0 0 0 0 0 0 -4.84905 4.84905 0 0. 9.
 15 1 1 2 0 0 0.814936 2.02983 4.11361 4.98637 1.7768 0. 1
 -15 1 1 2 0 0 -0.814936 -2.02983 -3.96271 4.86263 1.7768 0. -1
</event>
<event>
 4 80 1 -1 -1 -1
 11 -1 0 0 0 0 0 0 4.98195 4.98195 0 0. 9.
 -11 -1 0 0 0 0 0 0 -5 5 0 0. 9.
 15 1 1 2 0 0 3.97813 1.3412 2.02265 4.9873 1.7768 0. 1
 -15 1 1 2 0 0 -3.97813 -1.3412 -2.04069 4.99465 1.7768 0. -1
</event>
<event>
 4 80 1 -1 -1 -1
 11 -1 0 0 0 0 0 0 5 5 0 0. 9.
 -11 -1 0 0 0 0 0 0 -4.99718 4.99718 0 0. 9.
 15 1 1 2 0 0 -3.69171 -0.539794 2.81354 4.99938 1.7768 0. -1
 -15 1 1 2 0 0 3.69171 0.539794 -2.81072 4.9978 1.7768 0. 1
</event>
<event>
 4 80 1 -1 -1 -1
 11 -1 0 0 0 0 0 0 5 5 0 0. 9.
 -11 -1 0 0 0 0 0 0 -4.98801 4.98801 0 0. 9.
 15 1 1 2 0 0 4.07942 2.23925 0.361539 4.99443 1.7768 0. 1
 -15 1 1 2 0 0 -4.07942 -2.23925 -0.349547 4.99358 1.7768 0. -1
</event>
<event>
 4 80 1 -1 -1 -1
 11 -1 0 0 0 0 0 0 5 5 0 0. 9.
 -11 -1 0 0 0 0 0 0 -5 5 0 0. 9.
 15 1 1 2 0 0 2.32188 0.899143 -3.95508 5 1.7768 0. -1
 -15 1 1 2 0 0 -2.32188 -0.899143 3.95508 5 1.7768 0. 1
</event>
<event>
 4 80 1 -1 -1 -1
 11 -1 0 0 0 0 0 0 5 5 0 0. 9.
 -11 -1 0 0 0 0 0 0 -4.99595 4.99595 0 0. 9.
 15 1 1 2 0 0 2.76673 0.334212 3.75109 4.99949 1.7768 0. -1
 -15 1 1 2 0 0 -2.76673 -0.334212 -3.74704 4.99646 1.7768 0. 1
</event>
<event>
 4 80 1 -1 -1 -1
 11 -1 0 0 0 0 0 0 4.99996 4.99996 0 0. 9.
 -11 -1 0 0 0 0 0 0 -5 5 0 0. 9.
 15 1 1 2 0 0 -1.75163 0.712382 -4.27394 5 1.7768 0. -1
 -15 1 1 2 0 0 1.75163 -0.712382 4.2739 4.99996 1.7768 0. 1
</event>
<event>
 4 80 1 -1 -1 -1
 11 -1 0 0 0 0 0 0 1.33653 1.33653 0 0. 9.
 -11 -1 0 0 0 0 0 0 -5 5 0 0. 9.
 15 1 1 2 0 0 1.58836 0.447984 -2.92887 3.80258 1.7768 0. -1
 -15 1 1 2 0 0 -1.58836 -0.447984 -0.734596 2.53396 1.7768 0. 1
</event>
<event>
 4 80 1 -1 -1 -1
 11 -1 0 0 0 0 0 0 5 5 0 0. 9.
 -11 -1 0 0 0 0 0 0 -5 5 0 0. 9.
 15 1 1 2 0 0 0.405378 -1.52138 4.40038 5 1.7768 0. -1
 -15 1 1 2 0 0 -0.405378 1.52138 -4.40038 5 1.7768 0. 1
</event>
<event>
 4 80 1 -1 -1 -1
 11 -1 0 0 0 0 0 0 5 5 0 0. 9.
 -11 -1 0 0 0 0 0 0 -5 5 0 0. 9.
 15 1 1 2 0 0 -3.97885 2.28768 -0.881762 5 1.7768 0. -1
 -15 1 1 2 0 0 3.97885 -2.28768 0.881762 5 1.7768 0. 1
</event>
<event>
 4 80 1 -1 -1 -1
 11 -1 0 0 0 0 0 0 4.46988 4.46988 0 0. 9.
 -11 -1 0 0 0 0 0 0 -5 5 0 0. 9.
 15 1 1 2 0 0 -3.26045 2.34869 1.48262 4.63711 1.7768 0. -1
 -15 1 1 2 0 0 3.26045 -2.34869 -2.01274 4.83278 1.7768 0. 1
</event>
<event>
 4 80 1 -1 -1 -1
 11 -1 0 0 0 0 0 0 5 5 0 0. 9.
 -11 -1 0 0 0 0 0 0 -3.86895 3.86895 0 0. 9.
 15 1 1 2 0 0 -0.275315 -4.01387 0.55793 4.43351 1.7768 0. 1
 -15 1 1 2 0 0 0.275315 4.01387 0.573118 4.43544 1.7768 0. -1
</event>
<event>
 4 80 1 -1 -1 -1
 11 -1 0 0 0 0 0 0 5 5 0 0. 9.
 -11 -1 0 0 0 0 0 0 -4.99921 4.99921 0 0. 9.
 15 1 1 2 0 0 -4.274 -0.374785 -1.85183 4.99946 1.7768 0. 1
 -15 1 1 2 0 0 4.274 0.374785 1.85262 4.99975 1.7768 0. -1
</event>
<event>
 4 80 1 -1 -1 -1
 11 -1 0 0 0 0 0 0 5 5 0 0. 9.
 -11 -1 0 0 0 0 0 0 -4.99976 4.99976 0 0. 9.
 15 1 1 2 0 0 -3.35344 -2.24609 -2.35585 4.99982 1.7768 0. 1
 -15 1 1 2 0 0 3.35344 2.24609 2.35609 4.99994 1.7768 0. -1
</event>
<event>
 4 80 1 -1 -1 -1
 11 -1 0 0 0 0 0 0 5 5 0 0. 9.
 -11 -1 0 0 0 0 0 0 -5 5 0 0. 9.
 15 1 1 2 0 0 0.84182 -4.59674 -0.0599091 5 1.7768 0. 1
 -15 1 1 2 0 0 -0.84182 4.59674 0.0599091 5 1.7768 0. -1
</event>
<event>
 4 80 1 -1 -1 -1
 11 -1 0 0 0 0 0 0 5 5 0 0. 9.
 -11 -1 0 0 0 0 0 0 -5 5 0 0. 9.
 15 1 1 2 0 0 -3.29587 1.39526 -3.00546 5 1.7768 0. -1
 -15 1 1 2 0 0 3.29587 -1.39526 3.00546 5 1.7768 0. 1
</event>
<event>
 4 80 1 -1 -1 -1
 11 -1 0 0 0 0 0 0 5 5 0 0. 9.
 -11 -1 0 0 0 0 0 0 -5 5 0 0. 9.
 15 1 1 2 0 0 -2.87435 2.56607 -2.64494 5 1.7768 0. -1
 -15 1 1 2 0 0 2.87435 -2.56607 2.64494 5 1.7768 0. 1
</event>
<event>
 4 80 1 -1 -1 -1
 11 -1 0 0 0 0 0 0 4.92551 4.92551 0 0. 9.
 -11 -1 0 0 0 0 0 0 -5 5 0 0. 9.
 15 1 1 2 0 0 3.60991 -2.30589 1.72952 4.9495 1.7768 0. 1
 -15 1 1 2 0 0 -3.60991 2.30589 -1.80401 4.97601 1.7768 0. -1
</event>
<event>
 4 80 1 -1 -1 -1
 11 -1 0 0 0 0 0 0 5 5 0 0. 9.
 -11 -1 0 0 0 0 0 0 -5 5 0 0. 9.
 15 1 1 2 0 0 0.137586 0.267159 -4.6639 5 1.7768 0. 1
 -15 1 1 2 0 0 -0.137586 -0.267159 4.6639 5 1.7768 0. -1
</event>
<event>
 4 80 1 -1 -1 -1
 11 -1 0 0 0 0 0 0 5 5 0 0. 9.
 -11 -1 0 0 0 0 0 0 -5 5 0 0. 9.
 15 1 1 2 0 0 0.378161 -3.81526 2.67265 5 1.7768 0. 1
 -15 1 1 2 0 0 -0.378161 3.81526 -2.67265 5 1.7768 0. -1
</event>
<event>
 4 80 1 -1 -1 -1
 11 -1 0 0 0 0 0 0 5 5 0 0. 9.
 -11 -1 0 0 0 0 0 0 -4.99993 4.99993 0 0. 9.
 15 1 1 2 0 0 -3.68258 0.0597887 -2.87693 4.99995 1.7768 0. -1
 -15 1 1 2 0 0 3.68258 -0.0597887 2.877 4.99999 1.7768 0. 1
</event>
<event>
 4 80 1 -1 -1 -1
 11 -1 0 0 0 0 0 0 4.99728 4.99728 0 0. 9.
 -11 -1 0 0 0 0 0 0 -4.99796 4.99796 0 0. 9.
 15 1 1 2 0 0 0.602343 1.92091 -4.21529 4.99791 1.7768 0. -1
 -15 1 1 2 0 0 -0.602343 -1.92091 4.21461 4.99734 1.7768 0. 1
</event>
<event>
 4 80 1 -1 -1 -1
 11 -1 0 0 0 0 0 0 4.9835 4.9835 0 0. 9.
 -11 -1 0 0 0 0 0 0 -4.99999 4.99999 0 0. 9.
 15 1 1 2 0 0 0.477564 4.35976 1.58052 4.98912 1.7768 0. 1
 -15 1 1 2 0 0 -0.477564 -4.35976 -1.59701 4.99437 1.7768 0. -1
</event>
<event>
 4 80 1 -1 -1 -1
 11 -1 0 0 0 0 0 0 4.48761 4.48761 0 0. 9.
 -11 -1 0 0 0 0 0 0 -2.13255 2.13255 0 0. 9.
 15 1 1 2 0 0 -1.65315 1.7988 0.464741 3.05652 1.7768 0. 1
 -15 1 1 2 0 0 1.65315 -1.7988 1.89031 3.56365 1.7768 0. -1
</event>
<event>
 4 80 1 -1 -1 -1
 11 -1 0 0 0 0 0 0 4.99609 4.99609 0 0. 9.
 -11 -1 0 0 0 0 0 0 -4.99703 4.99703 0 0. 9.
 15 1 1 2 0 0 0.763124 -2.30579 -3.98906 4.99694 1.7768 0. -1
 -15 1 1 2 0 0 -0.763124 2.30579 3.98813 4.99619 1.7768 0. 1
</event>
<event>
 4 80 1 -1 -1 -1
 11 -1 0 0 0 0 0 0 4.92894 4.92894 0 0. 9.
 -11 -1 0 0 0 0 0 0 -2.00918 2.00918 0 0. 9.
 15 1 1 2 0 0 -0.163881 -2.3702 2.61641 3.95576 1.7768 0. -1
 -15 1 1 2 0 0 0.163881 2.3702 0.30335 2.98236 1.7768 0. 1
</event>
<event>
 4 80 1 -1 -1 -1
 11 -1 0 0 0 0 0 0 5 5 0 0. 9.
 -11 -1 0 0 0 0 0 0 -4.34441 4.34441 0 0. 9.
 15 1 1 2 0 0 -3.5682 1.70384 -1.38793 4.55183 1.7768 0. -1
 -15 1 1 2 0 0 3.5682 -1.70384 2.04352 4.79258 1.7768 0. 1
</event>
<event>
 4 80 1 -1 -1 -1
 11 -1 0 0 0 0 0 0 5 5 0 0. 9.
 -11 -1 0 0 0 0 0 0 -4.98466 4.98466 0 0. 9.
 15 1 1 2 0 0 4.42513 -0.135873 1.47916 4.99459 1.7768 0. 1
 -15 1 1 2 0 0 -4.42513 0.135873 -1.46382 4.99007 1.7768 0. -1
</event>
<event>
 4 80 1 -1 -1 -1
 11 -1 0 0 0 0 0 0 4.99566 4.99566 0 0. 9.
 -11 -1 0 0 0 0 0 0 -4.83513 4.83513 0 0. 9.
 15 1 1 2 0 0 2.67122 1.36871 -3.38259 4.85885 1.7768 0. 1
 -15 1 1 2 0 0 -2.67122 -1.36871 3.54312 4.97194 1.7768 0. -1
</event>
<event>
 4 80 1 -1 -1 -1
 11 -1 0 0 0 0 0 0 5 5 0 0. 9.
 -11 -1 0 0 0 0 0 0 -4.99982 4.99982 0 0. 9.
 15 1 1 2 0 0 2.83513 0.577104 -3.67011 4.99985 1.7768 0. -1
 -15 1 1 2 0 0 -2.83513 -0.577104 3.67029 4.99998 1.7768 0. 1
</event>
<event>
 4 80 1 -1 -1 -1
 11 -1 0 0 0 0 0 0 5 5 0 0. 9.
 -11 -1 0 0 0 0 0 0 -5 5 0 0. 9.
 15 1 1 2 0 0 -4.46009 -1.2658 -0.589599 5 1.7768 0. 1
 -15 1 1 2 0 0 4.46009 1.2658 0.589599 5 1.7768 0. -1
</event>
<event>
 4 80 1 -1 -1 -1
 11 -1 0 0 0 0 0 0 4.99988 4.99988 0 0. 9.
 -11 -1 0 0 0 0 0 0 -5 5 0 0. 9.
 15 1 1 2 0 0 1.16449 -0.53605 -4.49431 4.99999 1.7768 0. 1
 -15 1 1 2 0 0 -1.16449 0.53605 4.49419 4.99989 1.7768 0. -1
</event>
<event>
 4 80 1 -1 -1 -1
 11 -1 0 0 0 0 0 0 5 5 0 0. 9.
 -11 -1 0 0 0 0 0 0 -5 5 0 0. 9.
 15 1 1 2 0 0 -0.330852 -4.64003 -0.450495 5 1.7768 0. -1
 -15 1 1 2 0 0 0.330852 4.64003 0.450495 5 1.7768 0. 1
</event>
<event>
 4 80 1 -1 -1 -1
 11 -1 0 0 0 0 0 0 5 5 0 0. 9.
 -11 -1 0 0 0 0 0 0 -1.21739 1.21739 0 0. 9.
 15 1 1 2 0 0 -0.831278 1.49194 2.03107 3.19372 1.7768 0. 1
 -15 1 1 2 0 0 0.831278 -1.49194 1.75154 3.02366 1.7768 0. -1
</event>
<event>
 4 80 1 -1 -1 -1
 11 -1 0 0 0 0 0 0 4.99755 4.99755 0 0. 9.
 -11 -1 0 0 0 0 0 0 -5 5 0 0. 9.
 15 1 1 2 0 0 -3.10102 3.42038 0.716212 4.9986 1.7768 0. 1
 -15 1 1 2 0 0 3.10102 -3.42038 -0.718663 4.99895 1.7768 0. -1
</event>
<event>
 4 80 1 -1 -1 -1
 11 -1 0 0 0 0 0 0 5 5 0 0. 9.
 -11 -1 0 0 0 0 0 0 -5 5 0 0. 9.
 15 1 1 2 0 0 4.53476 -0.833828 -0.763539 5 1.7768 0. 1
 -15 1 1 2 0 0 -4.53476 0.833828 0.763539 5 1.7768 0. -1
</event>
<event>
 4 80 1 -1 -1 -1
 11 -1 0 0 0 0 0 0 4.54008 4.54008 0 0. 9.
 -11 -1 0 0 0 0 0 0 -3.72701 3.72701 0 0. 9.
 15 1 1 2 0 0 -2.40392 -0.151996 -2.42878 3.85469 1.7768 0. 1
 -15 1 1 2 0 0 2.40392 0.151996 3.24185 4.4124 1.7768 0. -1
</event>
<event>
 4 80 1 -1 -1 -1
 11 -1 0 0 0 0 0 0 5 5 0 0. 9.
 -11 -1 0 0 0 0 0 0 -5 5 0 0. 9.
 15 1 1 2 0 0 -3.02869 -3.39081 1.08245 5 1.7768 0. 1
 -15 1 1 2 0 0 3.02869 3.39081 -1.08245 5 1.7768 0. -1
</event>
<event>
 4 80 1 -1 -1 -1
 11 -1 0 0 0 0 0 0 4.6663 4.6663 0 0. 9.
 -11 -1 0 0 0 0 0 0 -5 5 0 0. 9.
 15 1 1 2 0 0 2.67953 1.92625 2.88184 4.7279 1.7768 0. -1
 -15 1 1 2 0 0 -2.67953 -1.92625 -3.21554 4.9384 1.7768 0. 1
</event>
<event>
 4 80 1 -1 -1 -1
 11 -1 0 0 0 0 0 0 4.99865 4.99865 0 0. 9.
 -11 -1 0 0 0 0 0 0 -4.69871 4.69871 0 0. 9.
 15 1 1 2 0 0 -3.08902 3.26855 0.472703 4.85866 1.7768 0. 1
 -15 1 1 2 0 0 3.08902 -3.26855 -0.172765 4.8387 1.7768 0. -1
</event>
<event>
 4 80 1 -1 -1 -1
 11 -1 0 0 0 0 0 0 2.91728 2.91728 0 0. 9.
 -11 -1 0 0 0 0 0 0 -4.98887 4.98887 0 0. 9.
 15 1 1 2 0 0 -2.0046 -0.222777 -3.84085 4.68806 1.7768 0. 1
 -15 1 1 2 0 0 2.0046 0.222777 1.76927 3.21809 1.7768 0. -1
</event>
<event>
 4 80 1 -1 -1 -1
 11 -1 0 0 0 0 0 0 5 5 0 0. 9.
 -11 -1 0 0 0 0 0 0 -5 5 0 0. 9.
 15 1 1 2 0 0 1.63831 1.26873 -4.1891 5 1.7768 0. 1
 -15 1 1 2 0 0 -1.63831 -1.26873 4.1891 5 1.7768 0. -1
</event>
<event>
 4 80 1 -1 -1 -1
 11 -1 0 0 0 0 0 0 5 5 0 0. 9.
 -11 -1 0 0 0 0 0 0 -4.99999 4.99999 0 0. 9.
 15 1 1 2 0 0 -1.82497 -0.857942 -4.21611 4.99999 1.7768 0. 1
 -15 1 1 2 0 0 1.82497 0.857942 4.21612 5 1.7768 0. -1
</event>
<event>
 4 80 1 -1 -1 -1
 11 -1 0 0 0 0 0 0 4.86587 4.86587 0 0. 9.
 -11 -1 0 0 0 0 0 0 -1.6073 1.6073 0 0. 9.
 15 1 1 2 0 0 1.87254 0.980305 1.1172 2.97881 1.7768 0. 1
 -15 1 1 2 0 0 -1.87254 -0.980305 2.14136 3.49437 1.7768 0. -1
</event>
<event>
 4 80 1 -1 -1 -1
 11 -1 0 0 0 0 0 0 5 5 0 0. 9.
 -11 -1 0 0 0 0 0 0 -5 5 0 0. 9.
 15 1 1 2 0 0 -4.06921 -0.622773 -2.21268 5 1.7768 0. 1
 -15 1 1 2 0 0 4.06921 0.622773 2.21268 5 1.7768 0. -1
</event>
<event>
 4 80 1 -1 -1 -1
 11 -1 0 0 0 0 0 0 4.99999 4.99999 0 0. 9.
 -11 -1 0 0 0 0 0 0 -4.85654 4.85654 0 0. 9.
 15 1 1 2 0 0 0.26977 -0.889916 4.57334 4.99378 1.7768 0. -1
 -15 1 1 2 0 0 -0.26977 0.889916 -4.42988 4.86275 1.7768 0. 1
</event>
<event>
 4 80 1 -1 -1 -1
 11 -1 0 0 0 0 0 0 5 5 0 0. 9.
 -11 -1 0 0 0 0 0 0 -4.99712 4.99712 0 0. 9.
 15 1 1 2 0 0 -4.50709 1.18528 -0.328891 4.99847 1.7768 0. 1
 -15 1 1 2 0 0 4.50709 -1.18528 0.33177 4.99866 1.7768 0. -1
</event>
<event>
 4 80 1 -1 -1 -1
 11 -1 0 0 0 0 0 0 4.99047 4.99047 0 0. 9.
 -11 -1 0 0 0 0 0 0 -4.99998 4.99998 0 0. 9.
 15 1 1 2 0 0 1.24476 -4.11628 1.81219 4.99349 1.7768 0. -1
 -15 1 1 2 0 0 -1.24476 4.11628 -1.82171 4.99695 1.7768 0. 1
</event>
<event>
 4 80 1 -1 -1 -1
 11 -1 0 0 0 0 0 0 5 5 0 0. 9.
 -11 -1 0 0 0 0 0 0 -4.9807 4.9807 0 0. 9.
 15 1 1 2 0 0 -3.11214 3.45818 -0.3087 4.98974 1.7768 0. 1
 -15 1 1 2 0 0 3.11214 -3.45818 0.327997 4.99097 1.7768 0. -1
</event>
<event>
 4 80 1 -1 -1 -1
 11 -1 0 0 0 0 0 0 5 5 0 0. 9.
 -11 -1 0 0 0 0 0 0 -4.99998 4.99998 0 0. 9.
 15 1 1 2 0 0 2.72281 -2.47157 2.88442 5 1.7768 0. 1
 -15 1 1 2 0 0 -2.72281 2.47157 -2.8844 4.99998 1.7768 0. -1
</event>
<event>
 4 80 1 -1 -1 -1
 11 -1 0 0 0 0 0 0 4.99984 4.99984 0 0. 9.
 -11 -1 0 0 0 0 0 0 -4.99998 4.99998 0 0. 9.
 15 1 1 2 0 0 -4.41517 -0.983847 1.17453 4.99989 1.7768 0. -1
 -15 1 1 2 0 0 4.41517 0.983847 -1.17467 4.99993 1.7768 0. 1
</event>
<event>
 4 80 1 -1 -1 -1
 11 -1 0 0 0 0 0 0 5 5 0 0. 9.
 -11 -1 0 0 0 0 0 0 -4.99999 4.99999 0 0. 9.
 15 1 1 2 0 0 1.51661 -2.8311 3.39515 5 1.7768 0. 1
 -15 1 1 2 0 0 -1.51661 2.8311 -3.39513 4.99999 1.7768 0. -1
</event>
<event>
 4 80 1 -1 -1 -1
 11 -1 0 0 0 0 0 0 4.99936 4.99936 0 0. 9.
 -11 -1 0 0 0 0 0 0 -4.98989 4.98989 0 0. 9.
 15 1 1 2 0 0 -0.0586548 2.33618 4.04545 4.99846 1.7768 0. 1
 -15 1 1 2 0 0 0.0586548 -2.33618 -4.03598 4.99079 1.7768 0. -1
</event>
<event>
 4 80 1 -1 -1 -1
 11 -1 0 0 0 0 0 0 4.99996 4.99996 0 0. 9.
 -11 -1 0 0 0 0 0 0 -5 5 0 0. 9.
 15 1 1 2 0 0 3.06274 3.45192 -0.738882 4.99998 1.7768 0. -1
 -15 1 1 2 0 0 -3.06274 -3.45192 0.738838 4.99997 1.7768 0. 1
</event>
<event>
 4 80 1 -1 -1 -1
 11 -1 0 0 0 0 0 0 5 5 0 0. 9.
 -11 -1 0 0 0 0 0 0 -4.9339 4.9339 0 0. 9.
 15 1 1 2 0 0 -1.72268 0.245932 4.33241 4.99556 1.7768 0. -1
 -15 1 1 2 0 0 1.72268 -0.245932 -4.26631 4.93834 1.7768 0. 1
</event>
<event>
 4 80 1 -1 -1 -1
 11 -1 0 0 0 0 0 0 4.95368 4.95368 0 0. 9.
 -11 -1 0 0 0 0 0 0 -1.07286 1.07286 0 0. 9.
 15 1 1 2 0 0 0.721575 -1.21531 2.46196 3.34912 1.7768 0. -1
 -15 1 1 2 0 0 -0.721575 1.21531 1.41887 2.67742 1.7768 0. 1
</event>
<event>
 4 80 1 -1 -1 -1
 11 -1 0 0 0 0 0 0 4.99975 4.99975 0 0. 9.
 -11 -1 0 0 0 0 0 0 -4.50699 4.50699 0 0. 9.
 15 1 1 2 0 0 2.37228 -0.907733 3.84627 4.93996 1.7768 0. -1
 -15 1 1 2 0 0 -2.37228 0.907733 -3.35351 4.56678 1.7768 0. 1
</event>
<event>
 4 80 1 -1 -1 -1
 11 -1 0 0 0 0 0 0 5 5 0 0. 9.
 -11 -1 0 0 0 0 0 0 -4.99993 4.99993 0 0. 9.
 15 1 1 2 0 0 1.02209 -4.02057 -2.15224 4.99995 1.7768 0. -1
 -15 1 1 2 0 0 -1.02209 4.02057 2.15231 4.99998 1.7768 0. 1
</event>
<event>
 4 80 1 -1 -1 -1
 11 -1 0 0 0 0 0 0 5 5 0 0. 9.
 -11 -1 0 0 0 0 0 0 -4.44517 4.44517 0 0. 9.
 15 1 1 2 0 0 -2.32383 2.72169 2.78382 4.86982 1.7768 0. -1
 -15 1 1 2 0 0 2.32383 -2.72169 -2.22899 4.57536 1.7768 0. 1
</event>
<event>
 4 80 1 -1 -1 -1
 11 -1 0 0 0 0 0 0 4.9978 4.9978 0 0. 9.
 -11 -1 0 0 0 0 0 0 -5 5 0 0. 9.
 15 1 1 2 0 0 -4.39448 1.19739 -1.04327 4.99913 1.7768 0. 1
 -15 1 1 2 0 0 4.39448 -1.19739 1.04108 4.99867 1.7768 0. -1
</event>
<event>
 4 80 1 -1 -1 -1
 11 -1 0 0 0 0 0 0 4.9975 4.9975 0 0. 9.
 -11 -1 0 0 0 0 0 0 -4.99792 4.99792 0 0. 9.
 15 1 1 2 0 0 1.42748 -4.40723 -0.598531 4.99773 1.7768 0. 1
 -15 1 1 2 0 0 -1.42748 4.40723 0.598112 4.99768 1.7768 0. -1
</event>
<event>
 4 80 1 -1 -1 -1
 11 -1 0 0 0 0 0 0 4.88592 4.88592 0 0. 9.
 -11 -1 0 0 0 0 0 0 -4.99997 4.99997 0 0. 9.
 15 1 1 2 0 0 -0.702127 2.03408 -4.13667 4.99001 1.7768 0. -1
 -15 1 1 2 0 0 0.702127 -2.03408 4.02262 4.89588 1.7768 0. 1
</event>
<event>
 4 80 1 -1 -1 -1
 11 -1 0 0 0 0 0 0 2.88239 2.88239 0 0. 9.
 -11 -1 0 0 0 0 0 0 -5 5 0 0. 9.
 15 1 1 2 0 0 2.23903 2.36736 -0.230518 3.71868 1.7768 0. 1
 -15 1 1 2 0 0 -2.23903 -2.36736 -1.88709 4.16371 1.7768 0. -1
</event>
<event>
 4 80 1 -1 -1 -1
 11 -1 0 0 0 0 0 0 5 5 0 0. 9.
 -11 -1 0 0 0 0 0 0 -5 5 0 0. 9.
 15 1 1 2 0 0 -3.02429 3.53603 0.438658 5 1.7768 0. 1
 -15 1 1 2 0 0 3.02429 -3.53603 -0.438657 5 1.7768 0. -1
</event>
<event>
 4 80 1 -1 -1 -1
 11 -1 0 0 0 0 0 0 5 5 0 0. 9.
 -11 -1 0 0 0 0 0 0 -5 5 0 0. 9.
 15 1 1 2 0 0 2.99062 0.661776 -3.52995 5 1.7768 0. -1
 -15 1 1 2 0 0 -2.99062 -0.661776 3.52995 5 1.7768 0. 1
</event>
<event>
 4 80 1 -1 -1 -1
 11 -1 0 0 0 0 0 0 5 5 0 0. 9.
 -11 -1 0 0 0 0 0 0 -4.99999 4.99999 0 0. 9.
 15 1 1 2 0 0 -0.385302 2.79322 3.72716 5 1.7768 0. -1
 -15 1 1 2 0 0 0.385302 -2.79322 -3.72715 4.99999 1.7768 0. 1
</event>
<event>
 4 80 1 -1 -1 -1
 11 -1 0 0 0 0 0 0 4.99987 4.99987 0 0. 9.
 -11 -1 0 0 0 0 0 0 -5 5 0 0. 9.
 15 1 1 2 0 0 -2.21065 1.37226 3.88215 4.99988 1.7768 0. -1
 -15 1 1 2 0 0 2.21065 -1.37226 -3.88228 4.99999 1.7768 0. 1
</event>
<event>
 4 80 1 -1 -1 -1
 11 -1 0 0 0 0 0 0 4.99708 4.99708 0 0. 9.
 -11 -1 0 0 0 0 0 0 -5 5 0 0. 9.
 15 1 1 2 0 0 -2.99549 -2.56625 -2.50527 4.99927 1.7768 0. 1
 -15 1 1 2 0 0 2.99549 2.56625 2.50235 4.99781 1.7768 0. -1
</event>
<event>
 4 80 1 -1 -1 -1
 11 -1 0 0 0 0 0 0 5 5 0 0. 9.
 -11 -1 0 0 0 0 0 0 -5 5 0 0. 9.
 15 1 1 2 0 0 2.32609 -0.415321 -4.03225 5 1.7768 0. -1
 -15 1 1 2 0 0 -2.32609 0.415321 4.03225 5 1.7768 0. 1
</event>
<event>
 4 80 1 -1 -1 -1
 11 -1 0 0 0 0 0 0 5 5 0 0. 9.
 -11 -1 0 0 0 0 0 0 -3.83426 3.83426 0 0. 9.
 15 1 1 2 0 0 -2.09338 -1.91567 -2.26364 4.04152 1.7768 0. -1
 -15 1 1 2 0 0 2.09338 1.91567 3.42938 4.79275 1.7768 0. 1
</event>
<event>
 4 80 1 -1 -1 -1
 11 -1 0 0 0 0 0 0 5 5 0 0. 9.
 -11 -1 0 0 0 0 0 0 -4.99998 4.99998 0 0. 9.
 15 1 1 2 0 0 4.39237 1.11767 -1.14022 4.99999 1.7768 0. -1
 -15 1 1 2 0 0 -4.39237 -1.11767 1.14024 4.99999 1.7768 0. 1
</event>
<event>
 4 80 1 -1 -1 -1
 11 -1 0 0 0 0 0 0 4.83788 4.83788 0 0. 9.
 -11 -1 0 0 0 0 0 0 -5 5 0 0. 9.
 15 1 1 2 0 0 2.14511 -0.266639 -4.12624 4.9856 1.7768 0. 1
 -15 1 1 2 0 0 -2.14511 0.266639 3.96412 4.85228 1.7768 0. -1
</event>
<event>
 4 80 1 -1 -1 -1
 11 -1 0 0 0 0 0 0 4.94222 4.94222 0 0. 9.
 -11 -1 0 0 0 0 0 0 -4.87518 4.87518 0 0. 9.
 15 1 1 2 0 0 1.65147 -3.26258 -2.71694 4.88992 1.7768 0. 1
 -15 1 1 2 0 0 -1.65147 3.26258 2.78398 4.92748 1.7768 0. -1
</event>
<event>
 4 80 1 -1 -1 -1
 11 -1 0 0 0 0 0 0 4.87604 4.87604 0 0. 9.
 -11 -1 0 0 0 0 0 0 -5 5 0 0. 9.
 15 1 1 2 0 0 -0.856256 3.42081 -3.02656 4.97523 1.7768 0. -1
 -15 1 1 2 0 0 0.856256 -3.42081 2.9026 4.90081 1.7768 0. 1
</event>
<event>
 4 80 1 -1 -1 -1
 11 -1 0 0 0 0 0 0 5 5 0 0. 9.
 -11 -1 0 0 0 0 0 0 -4.99967 4.99967 0 0. 9.
 15 1 1 2 0 0 0.468424 1.29126 -4.4668 4.99968 1.7768 0. -1
 -15 1 1 2 0 0 -0.468424 -1.29126 4.46714 4.99998 1.7768 0. 1
</event>
<event>
 4 80 1 -1 -1 -1
 11 -1 0 0 0 0 0 0 5 5 0 0. 9.
 -11 -1 0 0 0 0 0 0 -4.73709 4.73709 0 0. 9.
 15 1 1 2 0 0 2.42346 3.71498 1.05562 4.8935 1.7768 0. 1
 -15 1 1 2 0 0 -2.42346 -3.71498 -0.792711 4.84359 1.7768 0. -1
</event>
<event>
 4 80 1 -1 -1 -1
 11 -1 0 0 0 0 0 0 4.99999 4.99999 0 0. 9.
 -11 -1 0 0 0 0 0 0 -4.99782 4.99782 0 0. 9.
 15 1 1 2 0 0 -3.95596 -2.10489 -1.32224 4.99862 1.7768 0. -1
 -15 1 1 2 0 0 3.95596 2.10489 1.32442 4.99919 1.7768 0. 1
</event>
<event>
 4 80 1 -1 -1 -1
 11 -1 0 0 0 0 0 0 5 5 0 0. 9.
 -11 -1 0 0 0 0 0 0 -4.99595 4.99595 0 0. 9.
 15 1 1 2 0 0 1.46667 -0.760419 4.37154 4.99974 1.7768 0. 1
 -15 1 1 2 0 0 -1.46667 0.760419 -4.36749 4.9962 1.7768 0. -1
</event>
<event>
 4 80 1 -1 -1 -1
 11 -1 0 0 0 0 0 0 5 5 0 0. 9.
 -11 -1 0 0 0 0 0 0 -4.76163 4.76163 0 0. 9.
 15 1 1 2 0 0 -2.4963 0.104948 -3.67772 4.7881 1.7768 0. -1
 -15 1 1 2 0 0 2.4963 -0.104948 3.91609 4.97353 1.7768 0. 1
</event>
<event>
 4 80 1 -1 -1 -1
 11 -1 0 0 0 0 0 0 5 5 0 0. 9.
 -11 -1 0 0 0 0 0 0 -5 5 0 0. 9.
 15 1 1 2 0 0 -4.14124 -0.172679 -2.15931 5 1.7768 0. -1
 -15 1 1 2 0 0 4.14124 0.172679 2.15931 5 1.7768 0. 1
</event>
<event>
 4 80 1 -1 -1 -1
 11 -1 0 0 0 0 0 0 5 5 0 0. 9.
 -11 -1 0 0 0 0 0 0 -5 5 0 0. 9.
 15 1 1 2 0 0 -0.484609 2.13478 4.12918 5 1.7768 0. -1
 -15 1 1 2 0 0 0.484609 -2.13478 -4.12918 5 1.7768 0. 1
</event>
<event>
 4 80 1 -1 -1 -1
 11 -1 0 0 0 0 0 0 5 5 0 0. 9.
 -11 -1 0 0 0 0 0 0 -5 5 0 0. 9.
 15 1 1 2 0 0 4.03325 -2.04028 1.18845 5 1.7768 0. -1
 -15 1 1 2 0 0 -4.03325 2.04028 -1.18845 5 1.7768 0. 1
</event>
<event>
 4 80 1 -1 -1 -1
 11 -1 0 0 0 0 0 0 4.99998 4.99998 0 0. 9.
 -11 -1 0 0 0 0 0 0 -4.98561 4.98561 0 0. 9.
 15 1 1 2 0 0 3.5888 -1.29021 2.69534 4.99667 1.7768 0. 1
 -15 1 1 2 0 0 -3.5888 1.29021 -2.68097 4.98893 1.7768 0. -1
</event>
<event>
 4 80 1 -1 -1 -1
 11 -1 0 0 0 0 0 0 4.84857 4.84857 0 0. 9.
 -11 -1 0 0 0 0 0 0 -4.11004 4.11004 0 0. 9.
 15 1 1 2 0 0 -2.91217 -1.74359 -1.92969 4.28979 1.7768 0. -1
 -15 1 1 2 0 0 2.91217 1.74359 2.66821 4.66883 1.7768 0. 1
</event>
<event>
 4 80 1 -1 -1 -1
 11 -1 0 0 0 0 0 0 5 5 0 0. 9.
 -11 -1 0 0 0 0 0 0 -2.36633 2.36633 0 0. 9.
 15 1 1 2 0 0 -2.55082 -1.3973 1.81309 3.86059 1.7768 0. -1
 -15 1 1 2 0 0 2.55082 1.3973 0.82058 3.50574 1.7768 0. 1
</event>
<event>
 4 80 1 -1 -1 -1
 11 -1 0 0 0 0 0 0 4.99997 4.99997 0 0. 9.
 -11 -1 0 0 0 0 0 0 -4.99953 4.99953 0 0. 9.
 15 1 1 2 0 0 4.44335 -0.0133396 1.44806 4.99982 1.7768 0. -1
 -15 1 1 2 0 0 -4.44335 0.0133396 -1.44761 4.99969 1.7768 0. 1
</event>
<event>
 4 80 1 -1 -1 -1
 11 -1 0 0 0 0 0 0 5 5 0 0. 9.
 -11 -1 0 0 0 0 0 0 -5 5 0 0. 9.
 15 1 1 2 0 0 0.982267 0.416191 -4.55019 5 1.7768 0. 1
 -15 1 1 2 0 0 -0.982267 -0.416191 4.55019 5 1.7768 0. -1
</event>
<event>
 4 80 1 -1 -1 -1
 11 -1 0 0 0 0 0 0 4.99959 4.99959 0 0. 9.
 -11 -1 0 0 0 0 0 0 -5 5 0 0. 9.
 15 1 1 2 0 0 -2.94009 0.605823 -3.58198 4.99994 1.7768 0. -1
 -15 1 1 2 0 0 2.94009 -0.605823 3.58157 4.99965 1.7768 0. 1
</event>
<event>
 4 80 1 -1 -1 -1
 11 -1 0 0 0 0 0 0 5 5 0 0. 9.
 -11 -1 0 0 0 0 0 0 -4.98817 4.98817 0 0. 9.
 15 1 1 2 0 0 2.42446 -0.250611 -3.97432 4.98937 1.7768 0. -1
 -15 1 1 2 0 0 -2.42446 0.250611 3.98616 4.9988 1.7768 0. 1
</event>
<event>
 4 80 1 -1 -1 -1
 11 -1 0 0 0 0 0 0 1.51963 1.51963 0 0. 9.
 -11 -1 0 0 0 0 0 0 -4.98408 4.98408 0 0. 9.
 15 1 1 2 0 0 -1.72679 -1.0285 -1.0071 2.86559 1.7768 0. 1
 -15 1 1 2 0 0 1.72679 1.0285 -2.45736 3.63813 1.7768 0. -1
</event>
<event>
 4 80 1 -1 -1 -1
 11 -1 0 0 0 0 0 0 5 5 0 0. 9.
 -11 -1 0 0 0 0 0 0 -5 5 0 0. 9.
 15 1 1 2 0 0 -2.67894 -0.834993 -3.73742 5 1.7768 0. -1
 -15 1 1 2 0 0 2.67894 0.834993 3.73742 5 1.7768 0. 1
</event>
<event>
 4 80 1 -1 -1 -1
 11 -1 0 0 0 0 0 0 5 5 0 0. 9.
 -11 -1 0 0 0 0 0 0 -3.77141 3.77141 0 0. 9.
 15 1 1 2 0 0 -0.0492545 3.06 -1.92736 4.0297 1.7768 0. 1
 -15 1 1 2 0 0 0.0492545 -3.06 3.15595 4.74171 1.7768 0. -1
</event>
<event>
 4 80 1 -1 -1 -1
 11 -1 0 0 0 0 0 0 5 5 0 0. 9.
 -11 -1 0 0 0 0 0 0 -2.46106 2.46106 0 0. 9.
 15 1 1 2 0 0 1.87562 1.9398 2.7225 4.22498 1.7768 0. -1
 -15 1 1 2 0 0 -1.87562 -1.9398 -0.183556 3.23607 1.7768 0. 1
</event>
<event>
 4 80 1 -1 -1 -1
 11 -1 0 0 0 0 0 0 5 5 0 0. 9.
 -11 -1 0 0 0 0 0 0 -1.42897 1.42897 0 0. 9.
 15 1 1 2 0 0 1.61438 0.217331 0.396716 2.44307 1.7768 0. 1
 -15 1 1 2 0 0 -1.61438 -0.217331 3.17431 3.98591 1.7768 0. -1
</event>
<event>
 4 80 1 -1 -1 -1
 11 -1 0 0 0 0 0 0 5 5 0 0. 9.
 -11 -1 0 0 0 0 0 0 -4.99937 4.99937 0 0. 9.
 15 1 1 2 0 0 0.321751 -1.41494 4.44256 4.99996 1.7768 0. -1
 -15 1 1 2 0 0 -0.321751 1.41494 -4.44194 4.99941 1.7768 0. 1
</event>
<event>
 4 80 1 -1 -1 -1
 11 -1 0 0 0 0 0 0 5 5 0 0. 9.
 -11 -1 0 0 0 0 0 0 -5 5 0 0. 9.
 15 1 1 2 0 0 -1.56135 -2.5812 -3.56958 5 1.7768 0. -1
 -15 1 1 2 0 0 1.56135 2.5812 3.56957 5 1.7768 0. 1
</event>
<event>
 4 80 1 -1 -1 -1
 11 -1 0 0 0 0 0 0 4.99632 4.99632 0 0. 9.
 -11 -1 0 0 0 0 0 0 -4.87095 4.87095 0 0. 9.
 15 1 1 2 0 0 -1.63514 -3.05555 3.09097 4.97211 1.7768 0. 1
 -15 1 1 2 0 0 1.63514 3.05555 -2.9656 4.89516 1.7768 0. -1
</event>
<event>
 4 80 1 -1 -1 -1
 11 -1 0 0 0 0 0 0 4.97262 4.97262 0 0. 9.
 -11 -1 0 0 0 0 0 0 -3.732 3.732 0 0. 9.
 15 1 1 2 0 0 1.57514 -0.221765 -3.00415 3.83574 1.7768 0. -1
 -15 1 1 2 0 0 -1.57514 0.221765 4.24476 4.86888 1.7768 0. 1
</event>
<event>
 4 80 1 -1 -1 -1
 11 -1 0 0 0 0 0 0 5 5 0 0. 9.
 -11 -1 0 0 0 0 0 0 -5 5 0 0. 9.
 15 1 1 2 0 0 3.25692 -1.41382 3.03905 5 1.7768 0. -1
 -15 1 1 2 0 0 -3.25692 1.41382 -3.03905 5 1.7768 0. 1
</event>
<event>
 4 80 1 -1 -1 -1
 11 -1 0 0 0 0 0 0 5 5 0 0. 9.
 -11 -1 0 0 0 0 0 0 -4.77435 4.77435 0 0. 9.
 15 1 1 2 0 0 3.26301 -0.0276518 -3.06072 4.81391 1.7768 0. -1
 -15 1 1 2 0 0 -3.26301 0.0276518 3.28637 4.96044 1.7768 0. 1
</event>
<event>
 4 80 1 -1 -1 -1
 11 -1 0 0 0 0 0 0 4.99999 4.99999 0 0. 9.
 -11 -1 0 0 0 0 0 0 -4.99986 4.99986 0 0. 9.
 15 1 1 2 0 0 -2.49457 -1.80105 -3.51772 4.99988 1.7768 0. -1
 -15 1 1 2 0 0 2.49457 1.80105 3.51786 4.99997 1.7768 0. 1
</event>
<event>
 4 80 1 -1 -1 -1
 11 -1 0 0 0 0 0 0 4.99997 4.99997 0 0. 9.
 -11 -1 0 0 0 0 0 0 -5 5 0 0. 9.
 15 1 1 2 0 0 1.152 4.49792 0.532595 4.99998 1.7768 0. -1
 -15 1 1 2 0 0 -1.152 -4.49792 -0.532628 4.99999 1.7768 0. 1
</event>
<event>
 4 80 1 -1 -1 -1
 11 -1 0 0 0 0 0 0 5 5 0 0. 9.
 -11 -1 0 0 0 0 0 0 -5 5 0 0. 9.
 15 1 1 2 0 0 1.39136 -1.42554 4.22779 5 1.7768 0. 1
 -15 1 1 2 0 0 -1.39136 1.42554 -4.22779 5 1.7768 0. -1
</event>
<event>
 4 80 1 -1 -1 -1
 11 -1 0 0 0 0 0 0 5 5 0 0. 9.
 -11 -1 0 0 0 0 0 0 -5 5 0 0. 9.
 15 1 1 2 0 0 -3.42773 -2.54591 -1.90035 5 1.7768 0. -1
 -15 1 1 2 0 0 3.42773 2.54591 1.90035 5 1.7768 0. 1
</event>
<event>
 4 80 1 -1 -1 -1
 11 -1 0 0 0 0 0 0 4.07772 4.07772 0 0. 9.
 -11 -1 0 0 0 0 0 0 -3.55729 3.55729 0 0. 9.
 15 1 1 2 0 0 0.437551 0.799306 3.51085 4.03908 1.7768 0. -1
 -15 1 1 2 0 0 -0.437551 -0.799306 -2.99043 3.59593 1.7768 0. 1
</event>
<event>
 4 80 1 -1 -1 -1
 11 -1 0 0 0 0 0 0 4.99455 4.99455 0 0. 9.
 -11 -1 0 0 0 0 0 0 -3.00731 3.00731 0 0. 9.
 15 1 1 2 0 0 0.380523 -0.351821 -2.52148 3.12797 1.7768 0. 1
 -15 1 1 2 0 0 -0.380523 0.351821 4.50872 4.87389 1.7768 0. -1
</event>
<event>
 4 80 1 -1 -1 -1
 11 -1 0 0 0 0 0 0 5 5 0 0. 9.
 -11 -1 0 0 0 0 0 0 -4.9998 4.9998 0 0. 9.
 15 1 1 2 0 0 3.33789 -1.15468 -3.06037 4.99984 1.7768 0. -1
 -15 1 1 2 0 0 -3.33789 1.15468 3.06057 4.99996 1.7768 0. 1
</event>
<event>
 4 80 1 -1 -1 -1
 11 -1 0 0 0 0 0 0 5 5 0 0. 9.
 -11 -1 0 0 0 0 0 0 -5 5 0 0. 9.
 15 1 1 2 0 0 1.26526 -1.58037 4.21234 5 1.7768 0. 1
 -15 1 1 2 0 0 -1.26526 1.58037 -4.21234 5 1.7768 0. -1
</event>
<event>
 4 80 1 -1 -1 -1
 11 -1 0 0 0 0 0 0 3.4071 3.4071 0 0. 9.
 -11 -1 0 0 0 0 0 0 -4.99528 4.99528 0 0. 9.
 15 1 1 2 0 0 -2.90694 -1.18449 -2.83293 4.58656 1.7768 0. 1
 -15 1 1 2 0 0 2.90694 1.18449 1.24475 3.81582 1.7768 0. -1
</event>
<event>
 4 80 1 -1 -1 -1
 11 -1 0 0 0 0 0 0 5 5 0 0. 9.
 -11 -1 0 0 0 0 0 0 -4.93284 4.93284 0 0. 9.
 15 1 1 2 0 0 -1.06357 0.100214 -4.47931 4.93591 1.7768 0. 1
 -15 1 1 2 0 0 1.06357 -0.100214 4.54647 4.99693 1.7768 0. -1
</event>
<event>
 4 80 1 -1 -1 -1
 11 -1 0 0 0 0 0 0 3.87088 3.87088 0 0. 9.
 -11 -1 0 0 0 0 0 0 -5 5 0 0. 9.
 15 1 1 2 0 0 0.848996 1.49226 -4.23433 4.90254 1.7768 0. 1
 -15 1 1 2 0 0 -0.848996 -1.49226 3.10521 3.96834 1.7768 0. -1
</event>
<event>
 4 80 1 -1 -1 -1
 11 -1 0 0 0 0 0 0 3.6763 3.6763 0 0. 9.
 -11 -1 0 0 0 0 0 0 -5 5 0 0. 9.
 15 1 1 2 0 0 -2.63321 -0.387686 2.22495 3.89772 1.7768 0. 1
 -15 1 1 2 0 0 2.63321 0.387686 -3.54865 4.77857 1.7768 0. -1
</event>
<event>
 4 80 1 -1 -1 -1
 11 -1 0 0 0 0 0 0 2.93093 2.93093 0 0. 9.
 -11 -1 0 0 0 0 0 0 -4.95705 4.95705 0 0. 9.
 15 1 1 2 0 0 -0.543512 3.08128 -2.31424 4.27821 1.7768 0. 1
 -15 1 1 2 0 0 0.543512 -3.08128 0.288117 3.60977 1.7768 0. -1
</event>
<event>
 4 80 1 -1 -1 -1
 11 -1 0 0 0 0 0 0 5 5 0 0. 9.
 -11 -1 0 0 0 0 0 0 -5 5 0 0. 9.
 15 1 1 2 0 0 -0.107668 4.56197 -1.00949 5 1.7768 0. 1
 -15 1 1 2 0 0 0.107668 -4.56197 1.00949 5 1.7768 0. -1
</event>
<event>
 4 80 1 -1 -1 -1
 11 -1 0 0 0 0 0 0 4.81236 4.81236 0 0. 9.
 -11 -1 0 0 0 0 0 0 -5 5 0 0. 9.
 15 1 1 2 0 0 1.21466 0.229436 4.3088 4.82199 1.7768 0. -1
 -15 1 1 2 0 0 -1.21466 -0.229436 -4.49645 4.99037 1.7768 0. 1
</event>
<event>
 4 80 1 -1 -1 -1
 11 -1 0 0 0 0 0 0 5 5 0 0. 9.
 -11 -1 0 0 0 0 0 0 -4.99995 4.99995 0 0. 9.
 15 1 1 2 0 0 -1.08135 -3.39991 -3.01879 4.99996 1.7768 0. 1
 -15 1 1 2 0 0 1.08135 3.39991 3.01885 4.99999 1.7768 0. -1
</event>
<event>
 4 80 1 -1 -1 -1
 11 -1 0 0 0 0 0 0 5 5 0 0. 9.
 -11 -1 0 0 0 0 0 0 -5 5 0 0. 9.
 15 1 1 2 0 0 -3.5998 1.36233 -2.65099 5 1.7768 0. -1
 -15 1 1 2 0 0 3.5998 -1.36233 2.65099 5 1.7768 0. 1
</event>
<event>
 4 80 1 -1 -1 -1
 11 -1 0 0 0 0 0 0 4.99998 4.99998 0 0. 9.
 -11 -1 0 0 0 0 0 0 -5 5 0 0. 9.
 15 1 1 2 0 0 -2.24207 2.12118 -3.50941 5 1.7768 0. -1
 -15 1 1 2 0 0 2.24207 -2.12118 3.50939 4.99999 1.7768 0. 1
</event>
<event>
 4 80 1 -1 -1 -1
 11 -1 0 0 0 0 0 0 4.99986 4.99986 0 0. 9.
 -11 -1 0 0 0 0 0 0 -4.22931 4.22931 0 0. 9.
 15 1 1 2 0 0 1.42512 -3.27837 2.67572 4.80582 1.7768 0. 1
 -15 1 1 2 0 0 -1.42512 3.27837 -1.90518 4.42336 1.7768 0. -1
</event>
<event>
 4 80 1 -1 -1 -1
 11 -1 0 0 0 0 0 0 5 5 0 0. 9.
 -11 -1 0 0 0 0 0 0 -5 5 0 0. 9.
 15 1 1 2 0 0 -1.64962 1.7984 3.98582 5 1.7768 0. -1
 -15 1 1 2 0 0 1.64962 -1.7984 -3.98582 5 1.7768 0. 1
</event>
<event>
 4 80 1 -1 -1 -1
 11 -1 0 0 0 0 0 0 4.9995 4.9995 0 0. 9.
 -11 -1 0 0 0 0 0 0 -2.22031 2.22031 0 0. 9.
 15 1 1 2 0 0 -0.834855 2.66957 1.01566 3.46596 1.7768 0. 1
 -15 1 1 2 0 0 0.834855 -2.66957 1.76353 3.75385 1.7768 0. -1
</event>
<event>
 4 80 1 -1 -1 -1
 11 -1 0 0 0 0 0 0 4.79742 4.79742 0 0. 9.
 -11 -1 0 0 0 0 0 0 -4.99838 4.99838 0 0. 9.
 15 1 1 2 0 0 1.52917 -2.58392 3.33632 4.82739 1.7768 0. -1
 -15 1 1 2 0 0 -1.52917 2.58392 -3.53727 4.9684 1.7768 0. 1
</event>
<event>
 4 80 1 -1 -1 -1
 11 -1 0 0 0 0 0 0 5 5 0 0. 9.
 -11 -1 0 0 0 0 0 0 -4.33495 4.33495 0 0. 9.
 15 1 1 2 0 0 1.03298 4.17078 0.0983185 4.65079 1.7768 0. -1
 -15 1 1 2 0 0 -1.03298 -4.17078 0.566727 4.68416 1.7768 0. 1
</event>
<event>
 4 80 1 -1 -1 -1
 11 -1 0 0 0 0 0 0 4.74437 4.74437 0 0. 9.
 -11 -1 0 0 0 0 0 0 -4.12211 4.12211 0 0. 9.
 15 1 1 2 0 0 1.52065 -1.42123 -3.17119 4.18885 1.7768 0. -1
 -15 1 1 2 0 0 -1.52065 1.42123 3.79345 4.67763 1.7768 0. 1
</event>
<event>
 4 80 1 -1 -1 -1
 11 -1 0 0 0 0 0 0 4.94013 4.94013 0 0. 9.
 -11 -1 0 0 0 0 0 0 -4.99956 4.99956 0 0. 9.
 15 1 1 2 0 0 1.53295 -2.30148 -3.75725 4.99213 1.7768 0. -1
 -15 1 1 2 0 0 -1.53295 2.30148 3.69782 4.94756 1.7768 0. 1
</event>
<event>
 4 80 1 -1 -1 -1
 11 -1 0 0 0 0 0 0 5 5 0 0. 9.
 -11 -1 0 0 0 0 0 0 -4.99987 4.99987 0 0. 9.
 15 1 1 2 0 0 2.30267 0.617576 4.01975 4.99999 1.7768 0. 1
 -15 1 1 2 0 0 -2.30267 -0.617576 -4.01962 4.99988 1.7768 0. -1
</event>
<event>
 4 80 1 -1 -1 -1
 11 -1 0 0 0 0 0 0 5 5 0 0. 9.
 -11 -1 0 0 0 0 0 0 -5 5 0 0. 9.
 15 1 1 2 0 0 3.82782 2.06349 -1.71234 5 1.7768 0. 1
 -15 1 1 2 0 0 -3.82782 -2.06349 1.71234 5 1.7768 0. -1
</event>
<event>
 4 80 1 -1 -1 -1
 11 -1 0 0 0 0 0 0 5 5 0 0. 9.
 -11 -1 0 0 0 0 0 0 -5 5 0 0. 9.
 15 1 1 2 0 0 0.362681 -4.46964 -1.31647 5 1.7768 0. 1
 -15 1 1 2 0 0 -0.362681 4.46964 1.31647 5 1.7768 0. -1
</event>
<event>
 4 80 1 -1 -1 -1
 11 -1 0 0 0 0 0 0 4.99847 4.99847 0 0. 9.
 -11 -1 0 0 0 0 0 0 -5 5 0 0. 9.
 15 1 1 2 0 0 -2.08368 -1.56883 -3.87784 4.99983 1.7768 0. -1
 -15 1 1 2 0 0 2.08368 1.56883 3.87631 4.99865 1.7768 0. 1
</event>
<event>
 4 80 1 -1 -1 -1
 11 -1 0 0 0 0 0 0 5 5 0 0. 9.
 -11 -1 0 0 0 0 0 0 -5 5 0 0. 9.
 15 1 1 2 0 0 0.179456 0.985892 4.56487 5 1.7768 0. 1
 -15 1 1 2 0 0 -0.179456 -0.985892 -4.56487 5 1.7768 0. -1
</event>
<event>
 4 80 1 -1 -1 -1
 11 -1 0 0 0 0 0 0 5 5 0 0. 9.
 -11 -1 0 0 0 0 0 0 -5 5 0 0. 9.
 15 1 1 2 0 0 4.31552 -1.09703 1.41954 5 1.7768 0. 1
 -15 1 1 2 0 0 -4.31552 1.09703 -1.41954 5 1.7768 0. -1
</event>
<event>
 4 80 1 -1 -1 -1
 11 -1 0 0 0 0 0 0 5 5 0 0. 9.
 -11 -1 0 0 0 0 0 0 -5 5 0 0. 9.
 15 1 1 2 0 0 -1.76334 -0.63847 -4.2808 5 1.7768 0. -1
 -15 1 1 2 0 0 1.76334 0.63847 4.2808 5 1.7768 0. 1
</event>
<event>
 4 80 1 -1 -1 -1
 11 -1 0 0 0 0 0 0 5 5 0 0. 9.
 -11 -1 0 0 0 0 0 0 -5 5 0 0. 9.
 15 1 1 2 0 0 1.94462 -3.10923 2.89714 5 1.7768 0. 1
 -15 1 1 2 0 0 -1.94462 3.10923 -2.89714 5 1.7768 0. -1
</event>
<event>
 4 80 1 -1 -1 -1
 11 -1 0 0 0 0 0 0 4.99902 4.99902 0 0. 9.
 -11 -1 0 0 0 0 0 0 -5 5 0 0. 9.
 15 1 1 2 0 0 2.72677 3.63937 -1.07617 4.99962 1.7768 0. 1
 -15 1 1 2 0 0 -2.72677 -3.63937 1.07519 4.9994 1.7768 0. -1
</event>
<event>
 4 80 1 -1 -1 -1
 11 -1 0 0 0 0 0 0 5 5 0 0. 9.
 -11 -1 0 0 0 0 0 0 -5 5 0 0. 9.
 15 1 1 2 0 0 -2.18929 3.96748 -1.14383 5 1.7768 0. -1
 -15 1 1 2 0 0 2.18929 -3.96748 1.14383 5 1.7768 0. 1
</event>
<event>
 4 80 1 -1 -1 -1
 11 -1 0 0 0 0 0 0 4.99548 4.99548 0 0. 9.
 -11 -1 0 0 0 0 0 0 -4.99985 4.99985 0 0. 9.
 15 1 1 2 0 0 -1.27909 4.49124 -0.110399 4.99772 1.7768 0. 1
 -15 1 1 2 0 0 1.27909 -4.49124 0.106029 4.99762 1.7768 0. -1
</event>
<event>
 4 80 1 -1 -1 -1
 11 -1 0 0 0 0 0 0 4.99999 4.99999 0 0. 9.
 -11 -1 0 0 0 0 0 0 -4.76575 4.76575 0 0. 9.
 15 1 1 2 0 0 1.15881 -3.03984 -3.05988 4.80667 1.7768 0. -1
 -15 1 1 2 0 0 -1.15881 3.03984 3.29412 4.95907 1.7768 0. 1
</event>
<event>
 4 80 1 -1 -1 -1
 11 -1 0 0 0 0 0 0 4.94907 4.94907 0 0. 9.
 -11 -1 0 0 0 0 0 0 -5 5 0 0. 9.
 15 1 1 2 0 0 -4.56995 0.284152 -0.814408 4.97857 1.7768 0. -1
 -15 1 1 2 0 0 4.56995 -0.284152 0.763478 4.9705 1.7768 0. 1
</event>
<event>
 4 80 1 -1 -1 -1
 11 -1 0 0 0 0 0 0 5 5 0 0. 9.
 -11 -1 0 0 0 0 0 0 -5 5 0 0. 9.
 15 1 1 2 0 0 3.88203 -1.68112 -1.98644 5 1.7768 0. -1
 -15 1 1 2 0 0 -3.88203 1.68112 1.98644 5 1.7768 0. 1
</event>
<event>
 4 80 1 -1 -1 -1
 11 -1 0 0 0 0 0 0 5 5 0 0. 9.
 -11 -1 0 0 0 0 0 0 -5 5 0 0. 9.
 15 1 1 2 0 0 -3.43141 -1.61901 2.72883 5 1.7768 0. -1
 -15 1 1 2 0 0 3.43141 1.61901 -2.72883 5 1.7768 0. 1
</event>
<event>
 4 80 1 -1 -1 -1
 11 -1 0 0 0 0 0 0 4.99975 4.99975 0 0. 9.
 -11 -1 0 0 0 0 0 0 -5 5 0 0. 9.
 15 1 1 2 0 0 2.2086 -2.90943 2.91507 4.9998 1.7768 0. -1
 -15 1 1 2 0 0 -2.2086 2.90943 -2.91532 4.99995 1.7768 0. 1
</event>
<event>
 4 80 1 -1 -1 -1
 11 -1 0 0 0 0 0 0 4.99284 4.99284 0 0. 9.
 -11 -1 0 0 0 0 0 0 -4.9986 4.9986 0 0. 9.
 15 1 1 2 0 0 -3.18212 3.32439 -0.791545 4.99618 1.7768 0. -1
 -15 1 1 2 0 0 3.18212 -3.32439 0.785786 4.99527 1.7768 0. 1
</event>
<event>
 4 80 1 -1 -1 -1
 11 -1 0 0 0 0 0 0 2.15077 2.15077 0 0. 9.
 -11 -1 0 0 0 0 0 0 -4.93114 4.93114 0 0. 9.
 15 1 1 2 0 0 0.459726 1.30656 -3.94697 4.54475 1.7768 0. -1
 -15 1 1 2 0 0 -0.459726 -1.30656 1.1666 2.53715 1.7768 0. 1
</event>
<event>
 4 80 1 -1 -1 -1
 11 -1 0 0 0 0 0 0 4.99841 4.99841 0 0. 9.
 -11 -1 0 0 0 0 0 0 -4.9978 4.9978 0 0. 9.
 15 1 1 2 0 0 -2.12005 2.96839 -2.91815 4.99793 1.7768 0. -1
 -15 1 1 2 0 0 2.12005 -2.96839 2.91876 4.99828 1.7768 0. 1
</event>
<event>
 4 80 1 -1 -1 -1
 11 -1 0 0 0 0 0 0 4.92687 4.92687 0 0. 9.
 -11 -1 0 0 0 0 0 0 -4.94958 4.94958 0 0. 9.
 15 1 1 2 0 0 1.08633 -3.89274 -2.22375 4.94331 1.7768 0. -1
 -15 1 1 2 0 0 -1.08633 3.89274 2.20103 4.93313 1.7768 0. 1
</event>
<event>
 4 80 1 -1 -1 -1
 11 -1 0 0 0 0 0 0 5 5 0 0. 9.
 -11 -1 0 0 0 0 0 0 -5 5 0 0. 9.
 15 1 1 2 0 0 -1.83739 3.57033 2.39145 5 1.7768 0. -1
 -15 1 1 2 0 0 1.83739 -3.57033 -2.39145 5 1.7768 0. 1
</event>
<event>
 4 80 1 -1 -1 -1
 11 -1 0 0 0 0 0 0 5 5 0 0. 9.
 -11 -1 0 0 0 0 0 0 -5 5 0 0. 9.
 15 1 1 2 0 0 4.43511 -0.600287 1.346 5 1.7768 0. -1
 -15 1 1 2 0 0 -4.43511 0.600287 -1.346 5 1.7768 0. 1
</event>
<event>
 4 80 1 -1 -1 -1
 11 -1 0 0 0 0 0 0 5 5 0 0. 9.
 -11 -1 0 0 0 0 0 0 -5 5 0 0. 9.
 15 1 1 2 0 0 -4.49988 1.26058 0.0653509 5 1.7768 0. 1
 -15 1 1 2 0 0 4.49988 -1.26058 -0.0653509 5 1.7768 0. -1
</event>
<event>
 4 80 1 -1 -1 -1
 11 -1 0 0 0 0 0 0 5 5 0 0. 9.
 -11 -1 0 0 0 0 0 0 -2.31144 2.31144 0 0. 9.
 15 1 1 2 0 0 -1.46182 0.307888 -1.32634 2.67369 1.7768 0. -1
 -15 1 1 2 0 0 1.46182 -0.307888 4.01489 4.63776 1.7768 0. 1
</event>
<event>
 4 80 1 -1 -1 -1
 11 -1 0 0 0 0 0 0 5 5 0 0. 9.
 -11 -1 0 0 0 0 0 0 -5 5 0 0. 9.
 15 1 1 2 0 0 -0.86299 -4.35603 -1.45689 5 1.7768 0. -1
 -15 1 1 2 0 0 0.86299 4.35603 1.45689 5 1.7768 0. 1
</event>
<event>
 4 80 1 -1 -1 -1
 11 -1 0 0 0 0 0 0 5 5 0 0. 9.
 -11 -1 0 0 0 0 0 0 -5 5 0 0. 9.
 15 1 1 2 0 0 3.62839 1.30719 -2.63976 5 1.7768 0. -1
 -15 1 1 2 0 0 -3.62839 -1.30719 2.63976 5 1.7768 0. 1
</event>
<event>
 4 80 1 -1 -1 -1
 11 -1 0 0 0 0 0 0 5 5 0 0. 9.
 -11 -1 0 0 0 0 0 0 -5 5 0 0. 9.
 15 1 1 2 0 0 2.47252 -0.454285 3.93986 5 1.7768 0. -1
 -15 1 1 2 0 0 -2.47252 0.454285 -3.93986 5 1.7768 0. 1
</event>
<event>
 4 80 1 -1 -1 -1
 11 -1 0 0 0 0 0 0 4.9999 4.9999 0 0. 9.
 -11 -1 0 0 0 0 0 0 -5 5 0 0. 9.
 15 1 1 2 0 0 -1.8837 -0.702476 4.21895 4.99991 1.7768 0. -1
 -15 1 1 2 0 0 1.8837 0.702476 -4.21905 4.99999 1.7768 0. 1
</event>
<event>
 4 80 1 -1 -1 -1
 11 -1 0 0 0 0 0 0 4.9925 4.9925 0 0. 9.
 -11 -1 0 0 0 0 0 0 -4.99818 4.99818 0 0. 9.
 15 1 1 2 0 0 -1.35456 -0.312151 4.454 4.99281 1.7768 0. -1
 -15 1 1 2 0 0 1.35456 0.312151 -4.45968 4.99787 1.7768 0. 1
</event>
<event>
 4 80 1 -1 -1 -1
 11 -1 0 0 0 0 0 0 5 5 0 0. 9.
 -11 -1 0 0 0 0 0 0 -4.99858 4.99858 0 0. 9.
 15 1 1 2 0 0 0.906213 -1.23738 -4.41323 4.99867 1.7768 0. -1
 -15 1 1 2 0 0 -0.906213 1.23738 4.41465 4.99992 1.7768 0. 1
</event>
<event>
 4 80 1 -1 -1 -1
 11 -1 0 0 0 0 0 0 5 5 0 0. 9.
 -11 -1 0 0 0 0 0 0 -4.99578 4.99578 0 0. 9.
 15 1 1 2 0 0 -4.51173 -0.70172 -0.984339 4.99747 1.7768 0. 1
 -15 1 1 2 0 0 4.51173 0.70172 0.988556 4.99831 1.7768 0. -1
</event>
<event>
 4 80 1 -1 -1 -1
 11 -1 0 0 0 0 0 0 4.99267 4.99267 0 0. 9.
 -11 -1 0 0 0 0 0 0 -5 5 0 0. 9.
 15 1 1 2 0 0 -1.29102 -3.60511 -2.67614 4.99829 1.7768 0. 1
 -15 1 1 2 0 0 1.29102 3.60511 2.66881 4.99437 1.7768 0. -1
</event>
<event>
 4 80 1 -1 -1 -1
 11 -1 0 0 0 0 0 0 5 5 0 0. 9.
 -11 -1 0 0 0 0 0 0 -4.9987 4.9987 0 0. 9.
 15 1 1 2 0 0 -1.61044 3.6444 2.44208 4.99967 1.7768 0. 1
 -15 1 1 2 0 0 1.61044 -3.6444 -2.44078 4.99903 1.7768 0. -1
</event>
<event>
 4 80 1 -1 -1 -1
 11 -1 0 0 0 0 0 0 5 5 0 0. 9.
 -11 -1 0 0 0 0 0 0 -4.96096 4.96096 0 0. 9.
 15 1 1 2 0 0 1.47113 -4.27464 -1.08062 4.97617 1.7768 0. -1
 -15 1 1 2 0 0 -1.47113 4.27464 1.11965 4.98479 1.7768 0. 1
</event>
<event>
 4 80 1 -1 -1 -1
 11 -1 0 0 0 0 0 0 4.99163 4.99163 0 0. 9.
 -11 -1 0 0 0 0 0 0 -4.99995 4.99995 0 0. 9.
 15 1 1 2 0 0 2.8262 -3.57035 1.02798 4.99493 1.7768 0. 1
 -15 1 1 2 0 0 -2.8262 3.57035 -1.03631 4.99665 1.7768 0. -1
</event>
<event>
 4 80 1 -1 -1 -1
 11 -1 0 0 0 0 0 0 5 5 0 0. 9.
 -11 -1 0 0 0 0 0 0 -4.40252 4.40252 0 0. 9.
 15 1 1 2 0 0 1.56109 -2.96104 3.07022 4.87737 1.7768 0. 1
 -15 1 1 2 0 0 -1.56109 2.96104 -2.47273 4.52514 1.7768 0. -1
</event>
<event>
 4 80 1 -1 -1 -1
 11 -1 0 0 0 0 0 0 5 5 0 0. 9.
 -11 -1 0 0 0 0 0 0 -5 5 0 0. 9.
 15 1 1 2 0 0 -4.64162 0.0922254 -0.537748 5 1.7768 0. 1
 -15 1 1 2 0 0 4.64162 -0.0922254 0.537748 5 1.7768 0. -1
</event>
<event>
 4 80 1 -1 -1 -1
 11 -1 0 0 0 0 0 0 4.99957 4.99957 0 0. 9.
 -11 -1 0 0 0 0 0 0 -5 5 0 0. 9.
 15 1 1 2 0 0 4.41496 0.351539 1.49132 4.99972 1.7768 0. 1
 -15 1 1 2 0 0 -4.41496 -0.351539 -1.49174 4.99985 1.7768 0. -1
</event>
<event>
 4 80 1 -1 -1 -1
 11 -1 0 0 0 0 0 0 5 5 0 0. 9.
 -11 -1 0 0 0 0 0 0 -4.29885 4.29885 0 0. 9.
 15 1 1 2 0 0 4.22935 0.339696 0.929918 4.69311 1.7768 0. -1
 -15 1 1 2 0 0 -4.22935 -0.339696 -0.228772 4.60574 1.7768 0. 1
</event>
<event>
 4 80 1 -1 -1 -1
 11 -1 0 0 0 0 0 0 4.98227 4.98227 0 0. 9.
 -11 -1 0 0 0 0 0 0 -5 5 0 0. 9.
 15 1 1 2 0 0 -0.85155 3.42561 3.03969 4.98572 1.7768 0. 1
 -15 1 1 2 0 0 0.85155 -3.42561 -3.05742 4.99655 1.7768 0. -1
</event>
<event>
 4 80 1 -1 -1 -1
 11 -1 0 0 0 0 0 0 5 5 0 0. 9.
 -11 -1 0 0 0 0 0 0 -2.92054 2.92054 0 0. 9.
 15 1 1 2 0 0 -2.13138 2.50315 1.86651 4.17733 1.7768 0. -1
 -15 1 1 2 0 0 2.13138 -2.50315 0.212949 3.74321 1.7768 0. 1
</event>
<event>
 4 80 1 -1 -1 -1
 11 -1 0 0 0 0 0 0 5 5 0 0. 9.
 -11 -1 0 0 0 0 0 0 -4.99485 4.99485 0 0. 9.
 15 1 1 2 0 0 1.09528 3.72145 -2.59891 4.99609 1.7768 0. 1
 -15 1 1 2 0 0 -1.09528 -3.72145 2.60406 4.99877 1.7768 0. -1
</event>
<event>
 4 80 1 -1 -1 -1
 11 -1 0 0 0 0 0 0 4.99999 4.99999 0 0. 9.
 -11 -1 0 0 0 0 0 0 -4.8254 4.8254 0 0. 9.
 15 1 1 2 0 0 -1.94187 1.30945 -3.84826 4.84276 1.7768 0. -1
 -15 1 1 2 0 0 1.94187 -1.30945 4.02285 4.98263 1.7768 0. 1
</event>
<event>
 4 80 1 -1 -1 -1
 11 -1 0 0 0 0 0 0 5 5 0 0. 9.
 -11 -1 0 0 0 0 0 0 -5 5 0 0. 9.
 15 1 1 2 0 0 -4.03224 1.34608 -1.94201 5 1.7768 0. -1
 -15 1 1 2 0 0 4.03224 -1.34608 1.94201 5 1.7768 0. 1
</event>
<event>
 4 80 1 -1 -1 -1
 11 -1 0 0 0 0 0 0 4.97136 4.97136 0 0. 9.
 -11 -1 0 0 0 0 0 0 -5 5 0 0. 9.
 15 1 1 2 0 0 -3.9107 1.87562 1.68498 4.9808 1.7768 0. -1
 -15 1 1 2 0 0 3.9107 -1.87562 -1.71361 4.99056 1.7768 0. 1
</event>
<event>
 4 80 1 -1 -1 -1
 11 -1 0 0 0 0 0 0 5 5 0 0. 9.
 -11 -1 0 0 0 0 0 0 -4.99907 4.99907 0 0. 9.
 15 1 1 2 0 0 -0.263445 3.93312 -2.50927 4.9993 1.7768 0. -1
 -15 1 1 2 0 0 0.263445 -3.93312 2.51021 4.99977 1.7768 0. 1
</event>
<event>
 4 80 1 -1 -1 -1
 11 -1 0 0 0 0 0 0 5 5 0 0. 9.
 -11 -1 0 0 0 0 0 0 -5 5 0 0. 9.
 15 1 1 2 0 0 3.85251 0.416077 -2.61291 5 1.7768 0. 1
 -15 1 1 2 0 0 -3.85251 -0.416077 2.61291 5 1.7768 0. -1
</event>
<event>
 4 80 1 -1 -1 -1
 11 -1 0 0 0 0 0 0 4.99948 4.99948 0 0. 9.
 -11 -1 0 0 0 0 0 0 -5 5 0 0. 9.
 15 1 1 2 0 0 -1.98133 -3.48992 2.39443 4.99962 1.7768 0. -1
 -15 1 1 2 0 0 1.98133 3.48992 -2.39495 4.99987 1.7768 0. 1
</event>
<event>
 4 80 1 -1 -1 -1
 11 -1 0 0 0 0 0 0 2.95205 2.95205 0 0. 9.
 -11 -1 0 0 0 0 0 0 -5 5 0 0. 9.
 15 1 1 2 0 0 1.8224 -2.84243 -0.558865 3.85624 1.7768 0. 1
 -15 1 1 2 0 0 -1.8224 2.84243 -1.48908 4.09581 1.7768 0. -1
</event>
<event>
 4 80 1 -1 -1 -1
 11 -1 0 0 0 0 0 0 5 5 0 0. 9.
 -11 -1 0 0 0 0 0 0 -5 5 0 0. 9.
 15 1 1 2 0 0 -2.1201 -3.19725 2.66927 5 1.7768 0. -1
 -15 1 1 2 0 0 2.1201 3.19725 -2.66927 5 1.7768 0. 1
</event>
<event>
 4 80 1 -1 -1 -1
 11 -1 0 0 0 0 0 0 5 5 0 0. 9.
 -11 -1 0 0 0 0 0 0 -4.93268 4.93268 0 0. 9.
 15 1 1 2 0 0 -0.147125 -2.28315 4.06751 4.99368 1.7768 0. 1
 -15 1 1 2 0 0 0.147125 2.28315 -4.0002 4.939 1.7768 0. -1
</event>
<event>
 4 80 1 -1 -1 -1
 11 -1 0 0 0 0 0 0 5 5 0 0. 9.
 -11 -1 0 0 0 0 0 0 -4.82387 4.82387 0 0. 9.
 15 1 1 2 0 0 2.83375 -0.508337 3.64856 4.97577 1.7768 0. 1
 -15 1 1 2 0 0 -2.83375 0.508337 -3.47243 4.8481 1.7768 0. -1
</event>
<event>
 4 80 1 -1 -1 -1
 11 -1 0 0 0 0 0 0 5 5 0 0. 9.
 -11 -1 0 0 0 0 0 0 -4.66693 4.66693 0 0. 9.
 15 1 1 2 0 0 2.03095 -1.17384 -3.66644 4.7014 1.7768 0. -1
 -15 1 1 2 0 0 -2.03095 1.17384 3.99951 4.96553 1.7768 0. 1
</event>
<event>
 4 80 1 -1 -1 -1
 11 -1 0 0 0 0 0 0 5 5 0 0. 9.
 -11 -1 0 0 0 0 0 0 -5 5 0 0. 9.
 15 1 1 2 0 0 0.652982 3.27691 3.26768 5 1.7768 0. 1
 -15 1 1 2 0 0 -0.652982 -3.27691 -3.26768 5 1.7768 0. -1
</event>
<event>
 4 80 1 -1 -1 -1
 11 -1 0 0 0 0 0 0 4.86849 4.86849 0 0. 9.
 -11 -1 0 0 0 0 0 0 -3.62471 3.62471 0 0. 9.
 15 1 1 2 0 0 0.804542 -2.91546 -1.71456 3.90444 1.7768 0. -1
 -15 1 1 2 0 0 -0.804542 2.91546 2.95835 4.58876 1.7768 0. 1
</event>
<event>
 4 80 1 -1 -1 -1
 11 -1 0 0 0 0 0 0 5 5 0 0. 9.
 -11 -1 0 0 0 0 0 0 -4.0601 4.0601 0 0. 9.
 15 1 1 2 0 0 0.811048 4.05207 0.212278 4.50332 1.7768 0. 1
 -15 1 1 2 0 0 -0.811048 -4.05207 0.727623 4.55678 1.7768 0. -1
</event>
<event>
 4 80 1 -1 -1 -1
 11 -1 0 0 0 0 0 0 5 5 0 0. 9.
 -11 -1 0 0 0 0 0 0 -4.99998 4.99998 0 0. 9.
 15 1 1 2 0 0 2.13166 4.15903 -0.0257989 4.99999 1.7768 0. 1
 -15 1 1 2 0 0 -2.13166 -4.15903 0.0258163 4.99999 1.7768 0. -1
</event>
<event>
 4 80 1 -1 -1 -1
 11 -1 0 0 0 0 0 0 1.07904 1.07904 0 0. 9.
 -11 -1 0 0 0 0 0 0 -4.39425 4.39425 0 0. 9.
 15 1 1 2 0 0 -1.16045 -0.456271 -1.87162 2.86627 1.7768 0. 1
 -15 1 1 2 0 0 1.16045 0.456271 -1.4436 2.60702 1.7768 0. -1
</event>
<event>
 4 80 1 -1 -1 -1
 11 -1 0 0 0 0 0 0 4.99998 4.99998 0 0. 9.
 -11 -1 0 0 0 0 0 0 -5 5 0 0. 9.
 15 1 1 2 0 0 -1.49074 3.21267 3.04936 4.99999 1.7768 0. -1
 -15 1 1 2 0 0 1.49074 -3.21267 -3.04938 5 1.7768 0. 1
</event>
<event>
 4 80 1 -1 -1 -1
 11 -1 0 0 0 0 0 0 4.48645 4.48645 0 0. 9.
 -11 -1 0 0 0 0 0 0 -4.79175 4.79175 0 0. 9.
 15 1 1 2 0 0 1.37334 3.19592 2.34676 4.55685 1.7768 0. -1
 -15 1 1 2 0 0 -1.37334 -3.19592 -2.65206 4.72134 1.7768 0. 1
</event>
<event>
 4 80 1 -1 -1 -1
 11 -1 0 0 0 0 0 0 4.97644 4.97644 0 0. 9.
 -11 -1 0 0 0 0 0 0 -4.99694 4.99694 0 0. 9.
 15 1 1 2 0 0 2.25715 1.92731 -3.60191 4.99407 1.7768 0. 1
 -15 1 1 2 0 0 -2.25715 -1.92731 3.58141 4.9793 1.7768 0. -1
</event>
<event>
 4 80 1 -1 -1 -1
 11 -1 0 0 0 0 0 0 5 5 0 0. 9.
 -11 -1 0 0 0 0 0 0 -5 5 0 0. 9.
 15 1 1 2 0 0 -1.16192 0.340665 -4.514 5 1.7768 0. -1
 -15 1 1 2 0 0 1.16192 -0.340665 4.514 5 1.7768 0. 1
</event>
<event>
 4 80 1 -1 -1 -1
 11 -1 0 0 0 0 0 0 4.51709 4.51709 0 0. 9.
 -11 -1 0 0 0 0 0 0 -5 5 0 0. 9.
 15 1 1 2 0 0 -0.190804 3.2672 -3.19767 4.90855 1.7768 0. 1
 -15 1 1 2 0 0 0.190804 -3.2672 2.71475 4.60854 1.7768 0. -1
</event>
<event>
 4 80 1 -1 -1 -1
 11 -1 0 0 0 0 0 0 3.88978 3.88978 0 0. 9.
 -11 -1 0 0 0 0 0 0 -4.99998 4.99998 0 0. 9.
 15 1 1 2 0 0 2.80434 2.88672 -0.863393 4.48338 1.7768 0. 1
 -15 1 1 2 0 0 -2.80434 -2.88672 -0.246805 4.40638 1.7768 0. -1
</event>
<event>
 4 80 1 -1 -1 -1
 11 -1 0 0 0 0 0 0 5 5 0 0. 9.
 -11 -1 0 0 0 0 0 0 -5 5 0 0. 9.
 15 1 1 2 0 0 -0.242595 -4.51394 -1.18648 5 1.7768 0. 1
 -15 1 1 2 0 0 0.242595 4.51394 1.18648 5 1.7768 0. -1
</event>
<event>
 4 80 1 -1 -1 -1
 11 -1 0 0 0 0 0 0 5 5 0 0. 9.
 -11 -1 0 0 0 0 0 0 -4.99673 4.99673 0 0. 9.
 15 1 1 2 0 0 3.15201 2.38118 2.49578 4.99918 1.7768 0. -1
 -15 1 1 2 0 0 -3.15201 -2.38118 -2.49251 4.99755 1.7768 0. 1
</event>
<event>
 4 80 1 -1 -1 -1
 11 -1 0 0 0 0 0 0 5 5 0 0. 9.
 -11 -1 0 0 0 0 0 0 -5 5 0 0. 9.
 15 1 1 2 0 0 2.98759 -1.01137 -3.44873 5 1.7768 0. 1
 -15 1 1 2 0 0 -2.98759 1.01137 3.44873 5 1.7768 0. -1
</event>
<event>
 4 80 1 -1 -1 -1
 11 -1 0 0 0 0 0 0 4.99998 4.99998 0 0. 9.
 -11 -1 0 0 0 0 0 0 -5 5 0 0. 9.
 15 1 1 2 0 0 2.68874 3.78258 -0.552233 4.99999 1.7768 0. -1
 -15 1 1 2 0 0 -2.68874 -3.78258 0.552209 4.99999 1.7768 0. 1
</event>
<event>
 4 80 1 -1 -1 -1
 11 -1 0 0 0 0 0 0 4.39238 4.39238 0 0. 9.
 -11 -1 0 0 0 0 0 0 -4.91148 4.91148 0 0. 9.
 15 1 1 2 0 0 -2.12925 1.11915 3.29975 4.45334 1.7768 0. 1
 -15 1 1 2 0 0 2.12925 -1.11915 -3.81885 4.85052 1.7768 0. -1
</event>
<event>
 4 80 1 -1 -1 -1
 11 -1 0 0 0 0 0 0 5 5 0 0. 9.
 -11 -1 0 0 0 0 0 0 -4.99971 4.99971 0 0. 9.
 15 1 1 2 0 0 3.2307 0.910257 3.25204 4.99995 1.7768 0. 1
 -15 1 1 2 0 0 -3.2307 -0.910257 -3.25175 4.99976 1.7768 0. -1
</event>
<event>
 4 80 1 -1 -1 -1
 11 -1 0 0 0 0 0 0 5 5 0 0. 9.
 -11 -1 0 0 0 0 0 0 -1.88715 1.88715 0 0. 9.
 15 1 1 2 0 0 1.49328 1.03905 3.48791 4.31657 1.7768 0. 1
 -15 1 1 2 0 0 -1.49328 -1.03905 -0.375058 2.57058 1.7768 0. -1
</event>
<event>
 4 80 1 -1 -1 -1
 11 -1 0 0 0 0 0 0 5 5 0 0. 9.
 -11 -1 0 0 0 0 0 0 -5 5 0 0. 9.
 15 1 1 2 0 0 -1.69212 2.86836 -3.27895 5 1.7768 0. -1
 -15 1 1 2 0 0 1.69212 -2.86836 3.27895 5 1.7768 0. 1
</event>
<event>
 4 80 1 -1 -1 -1
 11 -1 0 0 0 0 0 0 4.99942 4.99942 0 0. 9.
 -11 -1 0 0 0 0 0 0 -5 5 0 0. 9.
 15 1 1 2 0 0 -3.6221 -2.27224 -1.8862 4.99982 1.7768 0. -1
 -15 1 1 2 0 0 3.6221 2.27224 1.88562 4.9996 1.7768 0. 1
</event>
<event>
 4 80 1 -1 -1 -1
 11 -1 0 0 0 0 0 0 4.99986 4.99986 0 0. 9.
 -11 -1 0 0 0 0 0 0 -4.03226 4.03226 0 0. 9.
 15 1 1 2 0 0 -0.798608 -1.81529 -3.15237 4.12652 1.7768 0. -1
 -15 1 1 2 0 0 0.798608 1.81529 4.11996 4.90559 1.7768 0. 1
</event>
<event>
 4 80 1 -1 -1 -1
 11 -1 0 0 0 0 0 0 5 5 0 0. 9.
 -11 -1 0 0 0 0 0 0 -3.22545 3.22545 0 0. 9.
 15 1 1 2 0 0 1.6969 -1.25405 -2.10156 3.46792 1.7768 0. -1
 -15 1 1 2 0 0 -1.6969 1.25405 3.87611 4.75753 1.7768 0. 1
</event>
<event>
 4 80 1 -1 -1 -1
 11 -1 0 0 0 0 0 0 4.99998 4.99998 0 0. 9.
 -11 -1 0 0 0 0 0 0 -4.95029 4.95029 0 0. 9.
 15 1 1 2 0 0 0.316389 -4.16723 -2.00687 4.96499 1.7768 0. 1
 -15 1 1 2 0 0 -0.316389 4.16723 2.05655 4.98528 1.7768 0. -1
</event>
<event>
 4 80 1 -1 -1 -1
 11 -1 0 0 0 0 0 0 1.66812 1.66812 0 0. 9.
 -11 -1 0 0 0 0 0 0 -5 5 0 0. 9.
 15 1 1 2 0 0 0.680348 -0.411643 -4.12861 4.56459 1.7768 0. -1
 -15 1 1 2 0 0 -0.680348 0.411643 0.796737 2.10353 1.7768 0. 1
</event>
<event>
 4 80 1 -1 -1 -1
 11 -1 0 0 0 0 0 0 5 5 0 0. 9.
 -11 -1 0 0 0 0 0 0 -4.9989 4.9989 0 0. 9.
 15 1 1 2 0 0 1.92053 -3.98663 -1.50115 4.99929 1.7768 0. 1
 -15 1 1 2 0 0 -1.92053 3.98663 1.50225 4.99962 1.7768 0. -1
</event>
<event>
 4 80 1 -1 -1 -1
 11 -1 0 0 0 0 0 0 5 5 0 0. 9.
 -11 -1 0 0 0 0 0 0 -0.918847 0.918847 0 0. 9.
 15 1 1 2 0 0 -0.0302274 1.08522 1.33942 2.47596 1.7768 0. -1
 -15 1 1 2 0 0 0.0302274 -1.08522 2.74173 3.44288 1.7768 0. 1
</event>
<event>
 4 80 1 -1 -1 -1
 11 -1 0 0 0 0 0 0 4.77247 4.77247 0 0. 9.
 -11 -1 0 0 0 0 0 0 -4.99991 4.99991 0 0. 9.
 15 1 1 2 0 0 -2.8361 1.40015 -3.38575 4.96235 1.7768 0. 1
 -15 1 1 2 0 0 2.8361 -1.40015 3.1583 4.81004 1.7768 0. -1
</event>
<event>
 4 80 1 -1 -1 -1
 11 -1 0 0 0 0 0 0 3.24421 3.24421 0 0. 9.
 -11 -1 0 0 0 0 0 0 -4.99987 4.99987 0 0. 9.
 15 1 1 2 0 0 1.09756 3.09394 0.66955 3.79251 1.7768 0. 1
 -15 1 1 2 0 0 -1.09756 -3.09394 -2.42521 4.45157 1.7768 0. -1
</event>
<event>
 4 80 1 -1 -1 -1
 11 -1 0 0 0 0 0 0 4.99799 4.99799 0 0. 9.
 -11 -1 0 0 0 0 0 0 -4.99941 4.99941 0 0. 9.
 15 1 1 2 0 0 0.774243 -1.94954 4.17411 4.99811 1.7768 0. -1
 -15 1 1 2 0 0 -0.774243 1.94954 -4.17553 4.99929 1.7768 0. 1
</event>
<event>
 4 80 1 -1 -1 -1
 11 -1 0 0 0 0 0 0 4.71707 4.71707 0 0. 9.
 -11 -1 0 0 0 0 0 0 -5 5 0 0. 9.
 15 1 1 2 0 0 -2.36078 3.28089 1.88179 4.79963 1.7768 0. 1
 -15 1 1 2 0 0 2.36078 -3.28089 -2.16471 4.91745 1.7768 0. -1
</event>
<event>
 4 80 1 -1 -1 -1
 11 -1 0 0 0 0 0 0 4.99999 4.99999 0 0. 9.
 -11 -1 0 0 0 0 0 0 -4.99972 4.99972 0 0. 9.
 15 1 1 2 0 0 -0.670617 3.75411 -2.70131 4.99978 1.7768 0. -1
 -15 1 1 2 0 0 0.670617 -3.75411 2.70157 4.99993 1.7768 0. 1
</event>
<event>
 4 80 1 -1 -1 -1
 11 -1 0 0 0 0 0 0 5 5 0 0. 9.
 -11 -1 0 0 0 0 0 0 -4.0297 4.0297 0 0. 9.
 15 1 1 2 0 0 0.721466 -1.21165 -3.41067 4.09622 1.7768 0. -1
 -15 1 1 2 0 0 -0.721466 1.21165 4.38097 4.93348 1.7768 0. 1
</event>
<event>
 4 80 1 -1 -1 -1
 11 -1 0 0 0 0 0 0 5 5 0 0. 9.
 -11 -1 0 0 0 0 0 0 -5 5 0 0. 9.
 15 1 1 2 0 0 1.61257 -3.82125 2.15404 5 1.7768 0. -1
 -15 1 1 2 0 0 -1.61257 3.82125 -2.15404 5 1.7768 0. 1
</event>
<event>
 4 80 1 -1 -1 -1
 11 -1 0 0 0 0 0 0 5 5 0 0. 9.
 -11 -1 0 0 0 0 0 0 -4.98841 4.98841 0 0. 9.
 15 1 1 2 0 0 1.19342 4.50686 0.22558 4.99446 1.7768 0. 1
 -15 1 1 2 0 0 -1.19342 -4.50686 -0.213994 4.99395 1.7768 0. -1
</event>
<event>
 4 80 1 -1 -1 -1
 11 -1 0 0 0 0 0 0 2.47952 2.47952 0 0. 9.
 -11 -1 0 0 0 0 0 0 -4.99322 4.99322 0 0. 9.
 15 1 1 2 0 0 2.28534 0.932074 -3.13597 4.36847 1.7768 0. -1
 -15 1 1 2 0 0 -2.28534 -0.932074 0.622273 3.10427 1.7768 0. 1
</event>
<event>
 4 80 1 -1 -1 -1
 11 -1 0 0 0 0 0 0 4.99821 4.99821 0 0. 9.
 -11 -1 0 0 0 0 0 0 -4.99999 4.99999 0 0. 9.
 15 1 1 2 0 0 2.52982 3.53501 1.7129 4.9988 1.7768 0. -1
 -15 1 1 2 0 0 -2.52982 -3.53501 -1.71468 4.99941 1.7768 0. 1
</event>
<event>
 4 80 1 -1 -1 -1
 11 -1 0 0 0 0 0 0 5 5 0 0. 9.
 -11 -1 0 0 0 0 0 0 -4.55502 4.55502 0 0. 9.
 15 1 1 2 0 0 1.08368 -3.5885 -2.13925 4.66753 1.7768 0. -1
 -15 1 1 2 0 0 -1.08368 3.5885 2.58423 4.8875 1.7768 0. 1
</event>
<event>
 4 80 1 -1 -1 -1
 11 -1 0 0 0 0 0 0 4.99999 4.99999 0 0. 9.
 -11 -1 0 0 0 0 0 0 -5 5 0 0. 9.
 15 1 1 2 0 0 0.810962 2.98415 -3.50421 5 1.7768 0. 1
 -15 1 1 2 0 0 -0.810962 -2.98415 3.5042 5 1.7768 0. -1
</event>
<event>
 4 80 1 -1 -1 -1
 11 -1 0 0 0 0 0 0 5 5 0 0. 9.
 -11 -1 0 0 0 0 0 0 -4.96514 4.96514 0 0. 9.
 15 1 1 2 0 0 1.07289 -3.23587 3.187 4.99366 1.7768 0. 1
 -15 1 1 2 0 0 -1.07289 3.23587 -3.15214 4.97148 1.7768 0. -1
</event>
<event>
 4 80 1 -1 -1 -1
 11 -1 0 0 0 0 0 0 5 5 0 0. 9.
 -11 -1 0 0 0 0 0 0 -5 5 0 0. 9.
 15 1 1 2 0 0 3.6406 -2.83709 -0.734324 5 1.7768 0. 1
 -15 1 1 2 0 0 -3.6406 2.83709 0.734324 5 1.7768 0. -1
</event>
<event>
 4 80 1 -1 -1 -1
 11 -1 0 0 0 0 0 0 5 5 0 0. 9.
 -11 -1 0 0 0 0 0 0 -5 5 0 0. 9.
 15 1 1 2 0 0 1.23208 -4.36638 -1.12205 5 1.7768 0. 1
 -15 1 1 2 0 0 -1.23208 4.36638 1.12205 5 1.7768 0. -1
</event>
<event>
 4 80 1 -1 -1 -1
 11 -1 0 0 0 0 0 0 5 5 0 0. 9.
 -11 -1 0 0 0 0 0 0 -2.57489 2.57489 0 0. 9.
 15 1 1 2 0 0 -0.98628 2.93332 1.6069 3.91369 1.7768 0. 1
 -15 1 1 2 0 0 0.98628 -2.93332 0.818208 3.66119 1.7768 0. -1
</event>
<event>
 4 80 1 -1 -1 -1
 11 -1 0 0 0 0 0 0 5 5 0 0. 9.
 -11 -1 0 0 0 0 0 0 -4.99999 4.99999 0 0. 9.
 15 1 1 2 0 0 -0.618722 -2.08326 -4.13756 4.99999 1.7768 0. -1
 -15 1 1 2 0 0 0.618722 2.08326 4.13757 5 1.7768 0. 1
</event>
<event>
 4 80 1 -1 -1 -1
 11 -1 0 0 0 0 0 0 4.99999 4.99999 0 0. 9.
 -11 -1 0 0 0 0 0 0 -4.9329 4.9329 0 0. 9.
 15 1 1 2 0 0 -3.30784 0.793619 -3.11852 4.94515 1.7768 0. -1
 -15 1 1 2 0 0 3.30784 -0.793619 3.18562 4.98774 1.7768 0. 1
</event>
<event>
 4 80 1 -1 -1 -1
 11 -1 0 0 0 0 0 0 5 5 0 0. 9.
 -11 -1 0 0 0 0 0 0 -1.01973 1.01973 0 0. 9.
 15 1 1 2 0 0 -0.903384 -0.944281 2.63374 3.43542 1.7768 0. -1
 -15 1 1 2 0 0 0.903384 0.944281 1.34653 2.58431 1.7768 0. 1
</event>
<event>
 4 80 1 -1 -1 -1
 11 -1 0 0 0 0 0 0 4.99958 4.99958 0 0. 9.
 -11 -1 0 0 0 0 0 0 -5 5 0 0. 9.
 15 1 1 2 0 0 -2.79141 3.38515 1.60882 4.99972 1.7768 0. 1
 -15 1 1 2 0 0 2.79141 -3.38515 -1.60924 4.99986 1.7768 0. -1
</event>
<event>
 4 80 1 -1 -1 -1
 11 -1 0 0 0 0 0 0 4.98436 4.98436 0 0. 9.
 -11 -1 0 0 0 0 0 0 -4.99283 4.99283 0 0. 9.
 15 1 1 2 0 0 0.211411 0.621204 4.61072 4.98468 1.7768 0. -1
 -15 1 1 2 0 0 -0.211411 -0.621204 -4.61918 4.99251 1.7768 0. 1
</event>
<event>
 4 80 1 -1 -1 -1
 11 -1 0 0 0 0 0 0 5 5 0 0. 9.
 -11 -1 0 0 0 0 0 0 -4.98266 4.98266 0 0. 9.
 15 1 1 2 0 0 0.853417 -3.69855 -2.70205 4.98662 1.7768 0. 1
 -15 1 1 2 0 0 -0.853417 3.69855 2.71939 4.99604 1.7768 0. -1
</event>
<event>
 4 80 1 -1 -1 -1
 11 -1 0 0 0 0 0 0 5 5 0 0. 9.
 -11 -1 0 0 0 0 0 0 -5 5 0 0. 9.
 15 1 1 2 0 0 1.32332 -0.18684 4.47841 5 1.7768 0. 1
 -15 1 1 2 0 0 -1.32332 0.18684 -4.47841 5 1.7768 0. -1
</event>
<event>
 4 80 1 -1 -1 -1
 11 -1 0 0 0 0 0 0 5 5 0 0. 9.
 -11 -1 0 0 0 0 0 0 -4.99185 4.99185 0 0. 9.
 15 1 1 2 0 0 -0.0791309 -3.97605 -2.44262 4.99393 1.7768 0. -1
 -15 1 1 2 0 0 0.0791309 3.97605 2.45076 4.99792 1.7768 0. 1
</event>
<event>
 4 80 1 -1 -1 -1
 11 -1 0 0 0 0 0 0 4.98025 4.98025 0 0. 9.
 -11 -1 0 0 0 0 0 0 -4.95811 4.95811 0 0. 9.
 15 1 1 2 0 0 -4.34357 -0.923522 1.35847 4.97218 1.7768 0. -1
 -15 1 1 2 0 0 4.34357 0.923522 -1.33632 4.96618 1.7768 0. 1
</event>
<event>
 4 80 1 -1 -1 -1
 11 -1 0 0 0 0 0 0 5 5 0 0. 9.
 -11 -1 0 0 0 0 0 0 -4.99993 4.99993 0 0. 9.
 15 1 1 2 0 0 -1.19798 3.40248 2.97155 4.99998 1.7768 0. 1
 -15 1 1 2 0 0 1.19798 -3.40248 -2.97147 4.99994 1.7768 0. -1
</event>
<event>
 4 80 1 -1 -1 -1
 11 -1 0 0 0 0 0 0 5 5 0 0. 9.
 -11 -1 0 0 0 0 0 0 -4.60373 4.60373 0 0. 9.
 15 1 1 2 0 0 3.63122 -2.49576 -0.470482 4.77428 1.7768 0. 1
 -15 1 1 2 0 0 -3.63122 2.49576 0.866754 4.82945 1.7768 0. -1
</event>
<event>
 4 80 1 -1 -1 -1
 11 -1 0 0 0 0 0 0 1.74009 1.74009 0 0. 9.
 -11 -1 0 0 0 0 0 0 -5 5 0 0. 9.
 15 1 1 2 0 0 -0.168808 -1.25104 0.640519 2.27191 1.7768 0. -1
 -15 1 1 2 0 0 0.168808 1.25104 -3.90043 4.46818 1.7768 0. 1
</event>
<event>
 4 80 1 -1 -1 -1
 11 -1 0 0 0 0 0 0 4.99784 4.99784 0 0. 9.
 -11 -1 0 0 0 0 0 0 -5 5 0 0. 9.
 15 1 1 2 0 0 -3.38594 0.479859 3.18272 4.99823 1.7768 0. 1
 -15 1 1 2 0 0 3.38594 -0.479859 -3.18488 4.99961 1.7768 0. -1
</event>
<event>
 4 80 1 -1 -1 -1
 11 -1 0 0 0 0 0 0 4.99998 4.99998 0 0. 9.
 -11 -1 0 0 0 0 0 0 -4.99998 4.99998 0 0. 9.
 15 1 1 2 0 0 -0.934141 1.15254 4.43183 4.99998 1.7768 0. 1
 -15 1 1 2 0 0 0.934141 -1.15254 -4.43183 4.99998 1.7768 0. -1
</event>
<event>
 4 80 1 -1 -1 -1
 11 -1 0 0 0 0 0 0 5 5 0 0. 9.
 -11 -1 0 0 0 0 0 0 -4.99804 4.99804 0 0. 9.
 15 1 1 2 0 0 -0.115444 2.576 -3.89561 4.99826 1.7768 0. 1
 -15 1 1 2 0 0 0.115444 -2.576 3.89757 4.99978 1.7768 0. -1
</event>
<event>
 4 80 1 -1 -1 -1
 11 -1 0 0 0 0 0 0 4.96076 4.96076 0 0. 9.
 -11 -1 0 0 0 0 0 0 -4.98099 4.98099 0 0. 9.
 15 1 1 2 0 0 -1.13604 -2.27904 3.87153 4.96297 1.7768 0. -1
 -15 1 1 2 0 0 1.13604 2.27904 -3.89176 4.97877 1.7768 0. 1
</event>
<event>
 4 80 1 -1 -1 -1
 11 -1 0 0 0 0 0 0 4.1337 4.1337 0 0. 9.
 -11 -1 0 0 0 0 0 0 -3.51339 3.51339 0 0. 9.
 15 1 1 2 0 0 1.37636 -2.78009 -1.01418 3.71612 1.7768 0. -1
 -15 1 1 2 0 0 -1.37636 2.78009 1.63448 3.93097 1.7768 0. 1
</event>
<event>
 4 80 1 -1 -1 -1
 11 -1 0 0 0 0 0 0 4.91327 4.91327 0 0. 9.
 -11 -1 0 0 0 0 0 0 -3.23185 3.23185 0 0. 9.
 15 1 1 2 0 0 2.00568 -2.53694 2.37794 4.38989 1.7768 0. -1
 -15 1 1 2 0 0 -2.00568 2.53694 -0.696518 3.75522 1.7768 0. 1
</event>
<event>
 4 80 1 -1 -1 -1
 11 -1 0 0 0 0 0 0 5 5 0 0. 9.
 -11 -1 0 0 0 0 0 0 -5 5 0 0. 9.
 15 1 1 2 0 0 0.226134 0.702546 -4.61493 5 1.7768 0. 1
 -15 1 1 2 0 0 -0.226134 -0.702546 4.61493 5 1.7768 0. -1
</event>
<event>
 4 80 1 -1 -1 -1
 11 -1 0 0 0 0 0 0 4.99152 4.99152 0 0. 9.
 -11 -1 0 0 0 0 0 0 -5 5 0 0. 9.
 15 1 1 2 0 0 -3.04328 2.39358 -2.61366 4.99797 1.7768 0. -1
 -15 1 1 2 0 0 3.04328 -2.39358 2.60518 4.99354 1.7768 0. 1
</event>
<event>
 4 80 1 -1 -1 -1
 11 -1 0 0 0 0 0 0 5 5 0 0. 9.
 -11 -1 0 0 0 0 0 0 -5 5 0 0. 9.
 15 1 1 2 0 0 -0.895477 -1.4479 4.35247 5 1.7768 0. -1
 -15 1 1 2 0 0 0.895477 1.4479 -4.35247 5 1.7768 0. 1
</event>
<event>
 4 80 1 -1 -1 -1
 11 -1 0 0 0 0 0 0 5 5 0 0. 9.
 -11 -1 0 0 0 0 0 0 -5 5 0 0. 9.
 15 1 1 2 0 0 -0.7995 2.69469 -3.73386 5 1.7768 0. 1
 -15 1 1 2 0 0 0.7995 -2.69469 3.73386 5 1.7768 0. -1
</event>
<event>
 4 80 1 -1 -1 -1
 11 -1 0 0 0 0 0 0 1.63266 1.63266 0 0. 9.
 -11 -1 0 0 0 0 0 0 -4.99999 4.99999 0 0. 9.
 15 1 1 2 0 0 -1.06761 0.569773 -3.86787 4.42523 1.7768 0. -1
 -15 1 1 2 0 0 1.06761 -0.569773 0.50054 2.20742 1.7768 0. 1
</event>
<event>
 4 80 1 -1 -1 -1
 11 -1 0 0 0 0 0 0 3.15241 3.15241 0 0. 9.
 -11 -1 0 0 0 0 0 0 -5 5 0 0. 9.
 15 1 1 2 0 0 -0.618212 2.93664 -2.87138 4.51759 1.7768 0. -1
 -15 1 1 2 0 0 0.618212 -2.93664 1.02379 3.63482 1.7768 0. 1
</event>
<event>
 4 80 1 -1 -1 -1
 11 -1 0 0 0 0 0 0 5 5 0 0. 9.
 -11 -1 0 0 0 0 0 0 -4.99695 4.99695 0 0. 9.
 15 1 1 2 0 0 0.649065 1.34786 4.42747 4.99983 1.7768 0. 1
 -15 1 1 2 0 0 -0.649065 -1.34786 -4.42443 4.99713 1.7768 0. -1
</event>
<event>
 4 80 1 -1 -1 -1
 11 -1 0 0 0 0 0 0 3.92877 3.92877 0 0. 9.
 -11 -1 0 0 0 0 0 0 -4.93656 4.93656 0 0. 9.
 15 1 1 2 0 0 1.16809 0.865191 3.2788 4.00265 1.7768 0. -1
 -15 1 1 2 0 0 -1.16809 -0.865191 -4.28659 4.86267 1.7768 0. 1
</event>
<event>
 4 80 1 -1 -1 -1
 11 -1 0 0 0 0 0 0 4.99998 4.99998 0 0. 9.
 -11 -1 0 0 0 0 0 0 -5 5 0 0. 9.
 15 1 1 2 0 0 -1.61666 1.68783 4.04719 4.99998 1.7768 0. 1
 -15 1 1 2 0 0 1.61666 -1.68783 -4.04721 5 1.7768 0. -1
</event>
<event>
 4 80 1 -1 -1 -1
 11 -1 0 0 0 0 0 0 5 5 0 0. 9.
 -11 -1 0 0 0 0 0 0 -4.97289 4.97289 0 0. 9.
 15 1 1 2 0 0 1.82758 -0.0635132 4.29874 4.99809 1.7768 0. -1
 -15 1 1 2 0 0 -1.82758 0.0635132 -4.27163 4.9748 1.7768 0. 1
</event>
<event>
 4 80 1 -1 -1 -1
 11 -1 0 0 0 0 0 0 4.98988 4.98988 0 0. 9.
 -11 -1 0 0 0 0 0 0 -5 5 0 0. 9.
 15 1 1 2 0 0 1.38961 -0.928808 -4.36373 4.99936 1.7768 0. 1
 -15 1 1 2 0 0 -1.38961 0.928808 4.3536 4.99052 1.7768 0. -1
</event>
<event>
 4 80 1 -1 -1 -1
 11 -1 0 0 0 0 0 0 3.92328 3.92328 0 0. 9.
 -11 -1 0 0 0 0 0 0 -4.99815 4.99815 0 0. 9.
 15 1 1 2 0 0 -3.68862 0.0363711 1.1614 4.25603 1.7768 0. -1
 -15 1 1 2 0 0 3.68862 -0.0363711 -2.23627 4.66539 1.7768 0. 1
</event>
<event>
 4 80 1 -1 -1 -1
 11 -1 0 0 0 0 0 0 4.99433 4.99433 0 0. 9.
 -11 -1 0 0 0 0 0 0 -5 5 0 0. 9.
 15 1 1 2 0 0 1.11232 1.54077 4.26363 4.99475 1.7768 0. -1
 -15 1 1 2 0 0 -1.11232 -1.54077 -4.2693 4.99959 1.7768 0. 1
</event>
<event>
 4 80 1 -1 -1 -1
 11 -1 0 0 0 0 0 0 5 5 0 0. 9.
 -11 -1 0 0 0 0 0 0 -5 5 0 0. 9.
 15 1 1 2 0 0 3.14128 1.52974 -3.10395 5 1.7768 0. 1
 -15 1 1 2 0 0 -3.14128 -1.52974 3.10395 5 1.7768 0. -1
</event>
<event>
 4 80 1 -1 -1 -1
 11 -1 0 0 0 0 0 0 4.99993 4.99993 0 0. 9.
 -11 -1 0 0 0 0 0 0 -5 5 0 0. 9.
 15 1 1 2 0 0 1.55369 4.19718 -1.346 4.99997 1.7768 0. -1
 -15 1 1 2 0 0 -1.55369 -4.19718 1.34593 4.99996 1.7768 0. 1
</event>
<event>
 4 80 1 -1 -1 -1
 11 -1 0 0 0 0 0 0 4.99694 4.99694 0 0. 9.
 -11 -1 0 0 0 0 0 0 -4.23895 4.23895 0 0. 9.
 15 1 1 2 0 0 -1.42833 0.118662 4.38875 4.94703 1.7768 0. 1
 -15 1 1 2 0 0 1.42833 -0.118662 -3.63076 4.28887 1.7768 0. -1
</event>
<event>
 4 80 1 -1 -1 -1
 11 -1 0 0 0 0 0 0 5 5 0 0. 9.
 -11 -1 0 0 0 0 0 0 -4.99972 4.99972 0 0. 9.
 15 1 1 2 0 0 1.70161 3.81856 2.08916 4.99992 1.7768 0. 1
 -15 1 1 2 0 0 -1.70161 -3.81856 -2.08887 4.9998 1.7768 0. -1
</event>
<event>
 4 80 1 -1 -1 -1
 11 -1 0 0 0 0 0 0 4.88951 4.88951 0 0. 9.
 -11 -1 0 0 0 0 0 0 -4.99899 4.99899 0 0. 9.
 15 1 1 2 0 0 -4.02791 1.65931 -1.57387 4.96107 1.7768 0. 1
 -15 1 1 2 0 0 4.02791 -1.65931 1.4644 4.92743 1.7768 0. -1
</event>
<event>
 4 80 1 -1 -1 -1
 11 -1 0 0 0 0 0 0 4.99999 4.99999 0 0. 9.
 -11 -1 0 0 0 0 0 0 -4.94142 4.94142 0 0. 9.
 15 1 1 2 0 0 0.168801 4.41055 1.46734 4.97918 1.7768 0. 1
 -15 1 1 2 0 0 -0.168801 -4.41055 -1.40876 4.96223 1.7768 0. -1
</event>
<event>
 4 80 1 -1 -1 -1
 11 -1 0 0 0 0 0 0 4.97963 4.97963 0 0. 9.
 -11 -1 0 0 0 0 0 0 -4.64529 4.64529 0 0. 9.
 15 1 1 2 0 0 2.98054 2.67823 2.14763 4.88125 1.7768 0. -1
 -15 1 1 2 0 0 -2.98054 -2.67823 -1.81329 4.74366 1.7768 0. 1
</event>
<event>
 4 80 1 -1 -1 -1
 11 -1 0 0 0 0 0 0 5 5 0 0. 9.
 -11 -1 0 0 0 0 0 0 -4.99904 4.99904 0 0. 9.
 15 1 1 2 0 0 3.83471 -0.94999 2.49648 4.99976 1.7768 0. 1
 -15 1 1 2 0 0 -3.83471 0.94999 -2.49552 4.99928 1.7768 0. -1
</event>
<event>
 4 80 1 -1 -1 -1
 11 -1 0 0 0 0 0 0 4.9929 4.9929 0 0. 9.
 -11 -1 0 0 0 0 0 0 -5 5 0 0. 9.
 15 1 1 2 0 0 1.72121 -3.15321 -2.98708 4.99857 1.7768 0. -1
 -15 1 1 2 0 0 -1.72121 3.15321 2.97998 4.99433 1.7768 0. 1
</event>
<event>
 4 80 1 -1 -1 -1
 11 -1 0 0 0 0 0 0 4.97991 4.97991 0 0. 9.
 -11 -1 0 0 0 0 0 0 -1.38032 1.38032 0 0. 9.
 15 1 1 2 0 0 -0.0181108 -1.90203 2.17964 3.39509 1.7768 0. -1
 -15 1 1 2 0 0 0.0181108 1.90203 1.41996 2.96514 1.7768 0. 1
</event>
<event>
 4 80 1 -1 -1 -1
 11 -1 0 0 0 0 0 0 4.64656 4.64656 0 0. 9.
 -11 -1 0 0 0 0 0 0 -4.99997 4.99997 0 0. 9.
 15 1 1 2 0 0 2.52418 -3.39987 -1.64205 4.87695 1.7768 0. 1
 -15 1 1 2 0 0 -2.52418 3.39987 1.28863 4.76958 1.7768 0. -1
</event>
<event>
 4 80 1 -1 -1 -1
 11 -1 0 0 0 0 0 0 4.99999 4.99999 0 0. 9.
 -11 -1 0 0 0 0 0 0 -4.99999 4.99999 0 0. 9.
 15 1 1 2 0 0 2.73795 3.41028 -1.64797 4.99999 1.7768 0. 1
 -15 1 1 2 0 0 -2.73795 -3.41028 1.64796 4.99999 1.7768 0. -1
</event>
<event>
 4 80 1 -1 -1 -1
 11 -1 0 0 0 0 0 0 5 5 0 0. 9.
 -11 -1 0 0 0 0 0 0 -5 5 0 0. 9.
 15 1 1 2 0 0 -2.81516 -3.71832 -0.302117 5 1.7768 0. -1
 -15 1 1 2 0 0 2.81516 3.71832 0.302117 5 1.7768 0. 1
</event>
<event>
 4 80 1 -1 -1 -1
 11 -1 0 0 0 0 0 0 5 5 0 0. 9.
 -11 -1 0 0 0 0 0 0 -5 5 0 0. 9.
 15 1 1 2 0 0 -0.454557 -4.23158 1.93117 5 1.7768 0. -1
 -15 1 1 2 0 0 0.454557 4.23158 -1.93117 5 1.7768 0. 1
</event>
<event>
 4 80 1 -1 -1 -1
 11 -1 0 0 0 0 0 0 4.9519 4.9519 0 0. 9.
 -11 -1 0 0 0 0 0 0 -4.99879 4.99879 0 0. 9.
 15 1 1 2 0 0 2.89593 -1.10547 -3.48576 4.99166 1.7768 0. 1
 -15 1 1 2 0 0 -2.89593 1.10547 3.43886 4.95903 1.7768 0. -1
</event>
<event>
 4 80 1 -1 -1 -1
 11 -1 0 0 0 0 0 0 5 5 0 0. 9.
 -11 -1 0 0 0 0 0 0 -5 5 0 0. 9.
 15 1 1 2 0 0 2.52081 2.48537 -3.05134 5 1.7768 0. -1
 -15 1 1 2 0 0 -2.52081 -2.48537 3.05134 5 1.7768 0. 1
</event>
<event>
 4 80 1 -1 -1 -1
 11 -1 0 0 0 0 0 0 1.15849 1.15849 0 0. 9.
 -11 -1 0 0 0 0 0 0 -5 5 0 0. 9.
 15 1 1 2 0 0 0.301042 -0.748826 -3.72259 4.20318 1.7768 0. 1
 -15 1 1 2 0 0 -0.301042 0.748826 -0.118921 1.95531 1.7768 0. -1
</event>
<event>
 4 80 1 -1 -1 -1
 11 -1 0 0 0 0 0 0 5 5 0 0. 9.
 -11 -1 0 0 0 0 0 0 -5 5 0 0. 9.
 15 1 1 2 0 0 -0.115153 -4.46705 -1.36911 5 1.7768 0. 1
 -15 1 1 2 0 0 0.115153 4.46705 1.36911 5 1.7768 0. -1
</event>
<event>
 4 80 1 -1 -1 -1
 11 -1 0 0 0 0 0 0 4.99948 4.99948 0 0. 9.
 -11 -1 0 0 0 0 0 0 -4.73052 4.73052 0 0. 9.
 15 1 1 2 0 0 1.51714 -1.17259 4.23675 4.9784 1.7768 0. -1
 -15 1 1 2 0 0 -1.51714 1.17259 -3.96779 4.7516 1.7768 0. 1
</event>
<event>
 4 80 1 -1 -1 -1
 11 -1 0 0 0 0 0 0 5 5 0 0. 9.
 -11 -1 0 0 0 0 0 0 -0.68804 0.68804 0 0. 9.
 15 1 1 2 0 0 -0.0241239 0.14778 1.37404 2.25126 1.7768 0. 1
 -15 1 1 2 0 0 0.0241239 -0.14778 2.93791 3.43679 1.7768 0. -1
</event>
<event>
 4 80 1 -1 -1 -1
 11 -1 0 0 0 0 0 0 5 5 0 0. 9.
 -11 -1 0 0 0 0 0 0 -4.9999 4.9999 0 0. 9.
 15 1 1 2 0 0 3.36953 -2.6186 1.90556 4.99997 1.7768 0. -1
 -15 1 1 2 0 0 -3.36953 2.6186 -1.90547 4.99993 1.7768 0. 1
</event>
<event>
 4 80 1 -1 -1 -1
 11 -1 0 0 0 0 0 0 5 5 0 0. 9.
 -11 -1 0 0 0 0 0 0 -0.936245 0.936245 0 0. 9.
 15 1 1 2 0 0 0.966947 -0.758 1.86988 2.85722 1.7768 0. 1
 -15 1 1 2 0 0 -0.966947 0.758 2.19387 3.07902 1.7768 0. -1
</event>
<event>
 4 80 1 -1 -1 -1
 11 -1 0 0 0 0 0 0 5 5 0 0. 9.
 -11 -1 0 0 0 0 0 0 -5 5 0 0. 9.
 15 1 1 2 0 0 3.83022 2.66466 0.267044 5 1.7768 0. -1
 -15 1 1 2 0 0 -3.83022 -2.66466 -0.267044 5 1.7768 0. 1
</event>
<event>
 4 80 1 -1 -1 -1
 11 -1 0 0 0 0 0 0 4.99997 4.99997 0 0. 9.
 -11 -1 0 0 0 0 0 0 -3.74846 3.74846 0 0. 9.
 15 1 1 2 0 0 1.10158 3.61579 1.77648 4.53884 1.7768 0. 1
 -15 1 1 2 0 0 -1.10158 -3.61579 -0.524967 4.2096 1.7768 0. -1
</event>
<event>
 4 80 1 -1 -1 -1
 11 -1 0 0 0 0 0 0 4.87795 4.87795 0 0. 9.
 -11 -1 0 0 0 0 0 0 -4.33784 4.33784 0 0. 9.
 15 1 1 2 0 0 -1.23316 -3.85011 -1.0198 4.5323 1.7768 0. 1
 -15 1 1 2 0 0 1.23316 3.85011 1.55991 4.68349 1.7768 0. -1
</event>
<event>
 4 80 1 -1 -1 -1
 11 -1 0 0 0 0 0 0 5 5 0 0. 9.
 -11 -1 0 0 0 0 0 0 -4.99995 4.99995 0 0. 9.
 15 1 1 2 0 0 -3.98898 -2.35312 -0.626737 4.99997 1.7768 0. -1
 -15 1 1 2 0 0 3.98898 2.35312 0.626792 4.99998 1.7768 0. 1
</event>
<event>
 4 80 1 -1 -1 -1
 11 -1 0 0 0 0 0 0 5 5 0 0. 9.
 -11 -1 0 0 0 0 0 0 -5 5 0 0. 9.
 15 1 1 2 0 0 -0.454979 1.55492 -4.38378 5 1.7768 0. -1
 -15 1 1 2 0 0 0.454979 -1.55492 4.38378 5 1.7768 0. 1
</event>
<event>
 4 80 1 -1 -1 -1
 11 -1 0 0 0 0 0 0 5 5 0 0. 9.
 -11 -1 0 0 0 0 0 0 -4.99999 4.99999 0 0. 9.
 15 1 1 2 0 0 2.84918 -3.20794 -1.85298 5 1.7768 0. 1
 -15 1 1 2 0 0 -2.84918 3.20794 1.85299 5 1.7768 0. -1
</event>
<event>
 4 80 1 -1 -1 -1
 11 -1 0 0 0 0 0 0 5 5 0 0. 9.
 -11 -1 0 0 0 0 0 0 -3.45602 3.45602 0 0. 9.
 15 1 1 2 0 0 2.82971 -2.3533 1.54465 4.36909 1.7768 0. 1
 -15 1 1 2 0 0 -2.82971 2.3533 -0.000670388 4.08693 1.7768 0. -1
</event>
<event>
 4 80 1 -1 -1 -1
 11 -1 0 0 0 0 0 0 4.99997 4.99997 0 0. 9.
 -11 -1 0 0 0 0 0 0 -4.95663 4.95663 0 0. 9.
 15 1 1 2 0 0 -3.67164 -2.8084 0.528895 4.98051 1.7768 0. 1
 -15 1 1 2 0 0 3.67164 2.8084 -0.485553 4.97609 1.7768 0. -1
</event>
<event>
 4 80 1 -1 -1 -1
 11 -1 0 0 0 0 0 0 5 5 0 0. 9.
 -11 -1 0 0 0 0 0 0 -2.54433 2.54433 0 0. 9.
 15 1 1 2 0 0 0.892688 -1.12841 -1.66729 2.8298 1.7768 0. 1
 -15 1 1 2 0 0 -0.892688 1.12841 4.12296 4.71453 1.7768 0. -1
</event>
<event>
 4 80 1 -1 -1 -1
 11 -1 0 0 0 0 0 0 4.78617 4.78617 0 0. 9.
 -11 -1 0 0 0 0 0 0 -5 5 0 0. 9.
 15 1 1 2 0 0 2.30967 2.23247 3.12721 4.82242 1.7768 0. 1
 -15 1 1 2 0 0 -2.30967 -2.23247 -3.34105 4.96375 1.7768 0. -1
</event>
<event>
 4 80 1 -1 -1 -1
 11 -1 0 0 0 0 0 0 5 5 0 0. 9.
 -11 -1 0 0 0 0 0 0 -5 5 0 0. 9.
 15 1 1 2 0 0 0.532883 4.29973 1.75231 5 1.7768 0. 1
 -15 1 1 2 0 0 -0.532883 -4.29973 -1.75231 5 1.7768 0. -1
</event>
<event>
 4 80 1 -1 -1 -1
 11 -1 0 0 0 0 0 0 4.99999 4.99999 0 0. 9.
 -11 -1 0 0 0 0 0 0 -5 5 0 0. 9.
 15 1 1 2 0 0 2.45016 3.27016 -2.26826 5 1.7768 0. -1
 -15 1 1 2 0 0 -2.45016 -3.27016 2.26825 4.99999 1.7768 0. 1
</event>
<event>
 4 80 1 -1 -1 -1
 11 -1 0 0 0 0 0 0 5 5 0 0. 9.
 -11 -1 0 0 0 0 0 0 -4.99601 4.99601 0 0. 9.
 15 1 1 2 0 0 2.7376 1.83922 -3.30635 4.99669 1.7768 0. 1
 -15 1 1 2 0 0 -2.7376 -1.83922 3.31034 4.99933 1.7768 0. -1
</event>
<event>
 4 80 1 -1 -1 -1
 11 -1 0 0 0 0 0 0 4.9998 4.9998 0 0. 9.
 -11 -1 0 0 0 0 0 0 -5 5 0 0. 9.
 15 1 1 2 0 0 -4.33512 -1.35015 -1.10694 4.99992 1.7768 0. -1
 -15 1 1 2 0 0 4.33512 1.35015 1.10674 4.99988 1.7768 0. 1
</event>
<event>
 4 80 1 -1 -1 -1
 11 -1 0 0 0 0 0 0 5 5 0 0. 9.
 -11 -1 0 0 0 0 0 0 -4.9989 4.9989 0 0. 9.
 15 1 1 2 0 0 0.290834 0.315186 -4.65271 4.99894 1.7768 0. 1
 -15 1 1 2 0 0 -0.290834 -0.315186 4.65381 4.99996 1.7768 0. -1
</event>
<event>
 4 80 1 -1 -1 -1
 11 -1 0 0 0 0 0 0 5 5 0 0. 9.
 -11 -1 0 0 0 0 0 0 -5 5 0 0. 9.
 15 1 1 2 0 0 -3.77165 2.49815 -1.17308 5 1.7768 0. 1
 -15 1 1 2 0 0 3.77165 -2.49815 1.17308 5 1.7768 0. -1
</event>
<event>
 4 80 1 -1 -1 -1
 11 -1 0 0 0 0 0 0 5 5 0 0. 9.
 -11 -1 0 0 0 0 0 0 -4.99999 4.99999 0 0. 9.
 15 1 1 2 0 0 -0.258843 4.59779 -0.797243 5 1.7768 0. 1
 -15 1 1 2 0 0 0.258843 -4.59779 0.797251 5 1.7768 0. -1
</event>
<event>
 4 80 1 -1 -1 -1
 11 -1 0 0 0 0 0 0 4.99873 4.99873 0 0. 9.
 -11 -1 0 0 0 0 0 0 -5 5 0 0. 9.
 15 1 1 2 0 0 3.9838 -2.15632 1.14634 4.99922 1.7768 0. 1
 -15 1 1 2 0 0 -3.9838 2.15632 -1.1476 4.99951 1.7768 0. -1
</event>
<event>
 4 80 1 -1 -1 -1
 11 -1 0 0 0 0 0 0 4.06111 4.06111 0 0. 9.
 -11 -1 0 0 0 0 0 0 -2.54074 2.54074 0 0. 9.
 15 1 1 2 0 0 1.65722 0.898 2.71205 3.75043 1.7768 0. -1
 -15 1 1 2 0 0 -1.65722 -0.898 -1.19167 2.85142 1.7768 0. 1
</event>
<event>
 4 80 1 -1 -1 -1
 11 -1 0 0 0 0 0 0 5 5 0 0. 9.
 -11 -1 0 0 0 0 0 0 -5 5 0 0. 9.
 15 1 1 2 0 0 -4.62401 -0.607925 -0.301982 5 1.7768 0. 1
 -15 1 1 2 0 0 4.62401 0.607925 0.301982 5 1.7768 0. -1
</event>
<event>
 4 80 1 -1 -1 -1
 11 -1 0 0 0 0 0 0 5 5 0 0. 9.
 -11 -1 0 0 0 0 0 0 -0.642643 0.642643 0 0. 9.
 15 1 1 2 0 0 0.0637208 0.12985 2.47129 3.04728 1.7768 0. -1
 -15 1 1 2 0 0 -0.0637208 -0.12985 1.88607 2.59536 1.7768 0. 1
</event>
<event>
 4 80 1 -1 -1 -1
 11 -1 0 0 0 0 0 0 4.9999 4.9999 0 0. 9.
 -11 -1 0 0 0 0 0 0 -5 5 0 0. 9.
 15 1 1 2 0 0 -3.25194 3.14422 -1.17503 4.99996 1.7768 0. 1
 -15 1 1 2 0 0 3.25194 -3.14422 1.17493 4.99994 1.7768 0. -1
</event>
<event>
 4 80 1 -1 -1 -1
 11 -1 0 0 0 0 0 0 4.7537 4.7537 0 0. 9.
 -11 -1 0 0 0 0 0 0 -5 5 0 0. 9.
 15 1 1 2 0 0 4.47039 -0.334596 0.594305 4.85873 1.7768 0. -1
 -15 1 1 2 0 0 -4.47039 0.334596 -0.840604 4.89497 1.7768 0. 1
</event>
<event>
 4 80 1 -1 -1 -1
 11 -1 0 0 0 0 0 0 4.98068 4.98068 0 0. 9.
 -11 -1 0 0 0 0 0 0 -4.99179 4.99179 0 0. 9.
 15 1 1 2 0 0 -4.59465 -0.513461 -0.58024 4.98687 1.7768 0. 1
 -15 1 1 2 0 0 4.59465 0.513461 0.569132 4.98559 1.7768 0. -1
</event>
<event>
 4 80 1 -1 -1 -1
 11 -1 0 0 0 0 0 0 4.99716 4.99716 0 0. 9.
 -11 -1 0 0 0 0 0 0 -4.96976 4.96976 0 0. 9.
 15 1 1 2 0 0 3.22053 1.95453 -2.72218 4.97594 1.7768 0. 1
 -15 1 1 2 0 0 -3.22053 -1.95453 2.74957 4.99098 1.7768 0. -1
</event>
<event>
 4 80 1 -1 -1 -1
 11 -1 0 0 0 0 0 0 5 5 0 0. 9.
 -11 -1 0 0 0 0 0 0 -5 5 0 0. 9.
 15 1 1 2 0 0 0.176542 -1.10555 4.5375 5 1.7768 0. -1
 -15 1 1 2 0 0 -0.176542 1.10555 -4.5375 5 1.7768 0. 1
</event>
<event>
 4 80 1 -1 -1 -1
 11 -1 0 0 0 0 0 0 5 5 0 0. 9.
 -11 -1 0 0 0 0 0 0 -5 5 0 0. 9.
 15 1 1 2 0 0 -3.50326 2.22937 -2.14462 5 1.7768 0. -1
 -15 1 1 2 0 0 3.50326 -2.22937 2.14462 5 1.7768 0. 1
</event>
<event>
 4 80 1 -1 -1 -1
 11 -1 0 0 0 0 0 0 5 5 0 0. 9.
 -11 -1 0 0 0 0 0 0 -5 5 0 0. 9.
 15 1 1 2 0 0 3.75427 0.811486 2.66256 5 1.7768 0. 1
 -15 1 1 2 0 0 -3.75427 -0.811486 -2.66256 5 1.7768 0. -1
</event>
<event>
 4 80 1 -1 -1 -1
 11 -1 0 0 0 0 0 0 4.47865 4.47865 0 0. 9.
 -11 -1 0 0 0 0 0 0 -4.98658 4.98658 0 0. 9.
 15 1 1 2 0 0 1.63906 -1.19199 -4.14133 4.94122 1.7768 0. -1
 -15 1 1 2 0 0 -1.63906 1.19199 3.63339 4.52401 1.7768 0. 1
</event>
<event>
 4 80 1 -1 -1 -1
 11 -1 0 0 0 0 0 0 5 5 0 0. 9.
 -11 -1 0 0 0 0 0 0 -4.95774 4.95774 0 0. 9.
 15 1 1 2 0 0 -1.66066 -4.01847 -1.62965 4.97186 1.7768 0. 1
 -15 1 1 2 0 0 1.66066 4.01847 1.67191 4.98588 1.7768 0. -1
</event>
<event>
 4 80 1 -1 -1 -1
 11 -1 0 0 0 0 0 0 5 5 0 0. 9.
 -11 -1 0 0 0 0 0 0 -4.97452 4.97452 0 0. 9.
 15 1 1 2 0 0 -0.489944 -3.36543 3.19846 4.9954 1.7768 0. -1
 -15 1 1 2 0 0 0.489944 3.36543 -3.17298 4.97912 1.7768 0. 1
</event>
<event>
 4 80 1 -1 -1 -1
 11 -1 0 0 0 0 0 0 4.54646 4.54646 0 0. 9.
 -11 -1 0 0 0 0 0 0 -4.74187 4.74187 0 0. 9.
 15 1 1 2 0 0 2.2668 2.49106 -2.75484 4.70007 1.7768 0. 1
 -15 1 1 2 0 0 -2.2668 -2.49106 2.55943 4.58826 1.7768 0. -1
</event>
<event>
 4 80 1 -1 -1 -1
 11 -1 0 0 0 0 0 0 4.42457 4.42457 0 0. 9.
 -11 -1 0 0 0 0 0 0 -4.33713 4.33713 0 0. 9.
 15 1 1 2 0 0 -3.02926 0.195481 2.65491 4.40691 1.7768 0. 1
 -15 1 1 2 0 0 3.02926 -0.195481 -2.56747 4.35479 1.7768 0. -1
</event>
<event>
 4 80 1 -1 -1 -1
 11 -1 0 0 0 0 0 0 4.90011 4.90011 0 0. 9.
 -11 -1 0 0 0 0 0 0 -5 5 0 0. 9.
 15 1 1 2 0 0 -3.57318 2.82419 0.72414 4.94224 1.7768 0. -1
 -15 1 1 2 0 0 3.57318 -2.82419 -0.824032 4.95786 1.7768 0. 1
</event>
<event>
 4 80 1 -1 -1 -1
 11 -1 0 0 0 0 0 0 4.99994 4.99994 0 0. 9.
 -11 -1 0 0 0 0 0 0 -4.99762 4.99762 0 0. 9.
 15 1 1 2 0 0 0.972779 4.5514 -0.409385 4.99869 1.7768 0. -1
 -15 1 1 2 0 0 -0.972779 -4.5514 0.411707 4.99888 1.7768 0. 1
</event>
<event>
 4 80 1 -1 -1 -1
 11 -1 0 0 0 0 0 0 2.25083 2.25083 0 0. 9.
 -11 -1 0 0 0 0 0 0 -5 5 0 0. 9.
 15 1 1 2 0 0 -0.435044 -2.06323 0.690135 2.84257 1.7768 0. 1
 -15 1 1 2 0 0 0.435044 2.06323 -3.43931 4.40826 1.7768 0. -1
</event>
<event>
 4 80 1 -1 -1 -1
 11 -1 0 0 0 0 0 0 4.99991 4.99991 0 0. 9.
 -11 -1 0 0 0 0 0 0 -4.99976 4.99976 0 0. 9.
 15 1 1 2 0 0 -2.97142 3.10144 1.8419 4.99986 1.7768 0. -1
 -15 1 1 2 0 0 2.97142 -3.10144 -1.84175 4.99981 1.7768 0. 1
</event>
<event>
 4 80 1 -1 -1 -1
 11 -1 0 0 0 0 0 0 5 5 0 0. 9.
 -11 -1 0 0 0 0 0 0 -4.99862 4.99862 0 0. 9.
 15 1 1 2 0 0 -3.87582 0.156417 2.60625 4.99967 1.7768 0. -1
 -15 1 1 2 0 0 3.87582 -0.156417 -2.60486 4.99895 1.7768 0. 1
</event>
<event>
 4 80 1 -1 -1 -1
 11 -1 0 0 0 0 0 0 5 5 0 0. 9.
 -11 -1 0 0 0 0 0 0 -4.47516 4.47516 0 0. 9.
 15 1 1 2 0 0 4.19419 0.746024 1.29853 4.79497 1.7768 0. -1
 -15 1 1 2 0 0 -4.19419 -0.746024 -0.77369 4.68019 1.7768 0. 1
</event>
<event>
 4 80 1 -1 -1 -1
 11 -1 0 0 0 0 0 0 4.99986 4.99986 0 0. 9.
 -11 -1 0 0 0 0 0 0 -4.99401 4.99401 0 0. 9.
 15 1 1 2 0 0 1.19085 3.77371 2.48337 4.99838 1.7768 0. -1
 -15 1 1 2 0 0 -1.19085 -3.77371 -2.47752 4.99548 1.7768 0. 1
</event>
<event>
 4 80 1 -1 -1 -1
 11 -1 0 0 0 0 0 0 4.96164 4.96164 0 0. 9.
 -11 -1 0 0 0 0 0 0 -5 5 0 0. 9.
 15 1 1 2 0 0 3.51596 0.0286522 3.02841 4.96908 1.7768 0. -1
 -15 1 1 2 0 0 -3.51596 -0.0286522 -3.06677 4.99256 1.7768 0. 1
</event>
<event>
 4 80 1 -1 -1 -1
 11 -1 0 0 0 0 0 0 5 5 0 0. 9.
 -11 -1 0 0 0 0 0 0 -4.99987 4.99987 0 0. 9.
 15 1 1 2 0 0 1.86865 -0.0866858 -4.28272 4.99988 1.7768 0. 1
 -15 1 1 2 0 0 -1.86865 0.0866858 4.28285 4.99999 1.7768 0. -1
</event>
<event>
 4 80 1 -1 -1 -1
 11 -1 0 0 0 0 0 0 5 5 0 0. 9.
 -11 -1 0 0 0 0 0 0 -5 5 0 0. 9.
 15 1 1 2 0 0 1.08371 -1.02413 4.42934 5 1.7768 0. -1
 -15 1 1 2 0 0 -1.08371 1.02413 -4.42934 5 1.7768 0. 1
</event>
<event>
 4 80 1 -1 -1 -1
 11 -1 0 0 0 0 0 0 4.73112 4.73112 0 0. 9.
 -11 -1 0 0 0 0 0 0 -5 5 0 0. 9.
 15 1 1 2 0 0 1.82289 -1.86207 -3.83824 4.9679 1.7768 0. -1
 -15 1 1 2 0 0 -1.82289 1.86207 3.56935 4.76322 1.7768 0. 1
</event>
<event>
 4 80 1 -1 -1 -1
 11 -1 0 0 0 0 0 0 4.99995 4.99995 0 0. 9.
 -11 -1 0 0 0 0 0 0 -4.99999 4.99999 0 0. 9.
 15 1 1 2 0 0 -0.979496 -2.99006 -3.45576 4.99999 1.7768 0. 1
 -15 1 1 2 0 0 0.979496 2.99006 3.45572 4.99996 1.7768 0. -1
</event>
<event>
 4 80 1 -1 -1 -1
 11 -1 0 0 0 0 0 0 5 5 0 0. 9.
 -11 -1 0 0 0 0 0 0 -5 5 0 0. 9.
 15 1 1 2 0 0 -4.39843 -0.273618 1.55601 5 1.7768 0. -1
 -15 1 1 2 0 0 4.39843 0.273618 -1.55601 5 1.7768 0. 1
</event>
<event>
 4 80 1 -1 -1 -1
 11 -1 0 0 0 0 0 0 5 5 0 0. 9.
 -11 -1 0 0 0 0 0 0 -4.99997 4.99997 0 0. 9.
 15 1 1 2 0 0 0.839266 4.58376 -0.356296 4.99999 1.7768 0. -1
 -15 1 1 2 0 0 -0.839266 -4.58376 0.356322 4.99999 1.7768 0. 1
</event>
<event>
 4 80 1 -1 -1 -1
 11 -1 0 0 0 0 0 0 5 5 0 0. 9.
 -11 -1 0 0 0 0 0 0 -4.99952 4.99952 0 0. 9.
 15 1 1 2 0 0 -1.41912 4.15758 -1.59366 4.99969 1.7768 0. 1
 -15 1 1 2 0 0 1.41912 -4.15758 1.59414 4.99984 1.7768 0. -1
</event>
<event>
 4 80 1 -1 -1 -1
 11 -1 0 0 0 0 0 0 4.97162 4.97162 0 0. 9.
 -11 -1 0 0 0 0 0 0 -4.99986 4.99986 0 0. 9.
 15 1 1 2 0 0 3.72824 0.92207 -2.65036 4.9932 1.7768 0. -1
 -15 1 1 2 0 0 -3.72824 -0.92207 2.62212 4.97827 1.7768 0. 1
</event>
<event>
 4 80 1 -1 -1 -1
 11 -1 0 0 0 0 0 0 5 5 0 0. 9.
 -11 -1 0 0 0 0 0 0 -5 5 0 0. 9.
 15 1 1 2 0 0 -2.2832 -2.00626 3.55023 5 1.7768 0. 1
 -15 1 1 2 0 0 2.2832 2.00626 -3.55023 5 1.7768 0. -1
</event>
<event>
 4 80 1 -1 -1 -1
 11 -1 0 0 0 0 0 0 4.99532 4.99532 0 0. 9.
 -11 -1 0 0 0 0 0 0 -5 5 0 0. 9.
 15 1 1 2 0 0 2.77024 -2.01584 3.17273 4.99617 1.7768 0. -1
 -15 1 1 2 0 0 -2.77024 2.01584 -3.17741 4.99915 1.7768 0. 1
</event>
<event>
 4 80 1 -1 -1 -1
 11 -1 0 0 0 0 0 0 4.97839 4.97839 0 0. 9.
 -11 -1 0 0 0 0 0 0 -5 5 0 0. 9.
 15 1 1 2 0 0 3.47716 -1.87204 2.46691 4.98383 1.7768 0. -1
 -15 1 1 2 0 0 -3.47716 1.87204 -2.48852 4.99456 1.7768 0. 1
</event>
<event>
 4 80 1 -1 -1 -1
 11 -1 0 0 0 0 0 0 5 5 0 0. 9.
 -11 -1 0 0 0 0 0 0 -5 5 0 0. 9.
 15 1 1 2 0 0 -2.73365 0.828397 -3.69908 5 1.7768 0. -1
 -15 1 1 2 0 0 2.73365 -0.828397 3.69908 5 1.7768 0. 1
</event>
<event>
 4 80 1 -1 -1 -1
 11 -1 0 0 0 0 0 0 5 5 0 0. 9.
 -11 -1 0 0 0 0 0 0 -5 5 0 0. 9.
 15 1 1 2 0 0 -0.277457 0.686511 -4.61454 5 1.7768 0. 1
 -15 1 1 2 0 0 0.277457 -0.686511 4.61454 5 1.7768 0. -1
</event>
<event>
 4 80 1 -1 -1 -1
 11 -1 0 0 0 0 0 0 5 5 0 0. 9.
 -11 -1 0 0 0 0 0 0 -5 5 0 0. 9.
 15 1 1 2 0 0 -3.68474 2.21295 1.83516 5 1.7768 0. -1
 -15 1 1 2 0 0 3.68474 -2.21295 -1.83516 5 1.7768 0. 1
</event>
<event>
 4 80 1 -1 -1 -1
 11 -1 0 0 0 0 0 0 5 5 0 0. 9.
 -11 -1 0 0 0 0 0 0 -4.88839 4.88839 0 0. 9.
 15 1 1 2 0 0 -4.32724 -1.47656 0.671497 4.95115 1.7768 0. 1
 -15 1 1 2 0 0 4.32724 1.47656 -0.559892 4.93725 1.7768 0. -1
</event>
<event>
 4 80 1 -1 -1 -1
 11 -1 0 0 0 0 0 0 4.99985 4.99985 0 0. 9.
 -11 -1 0 0 0 0 0 0 -5 5 0 0. 9.
 15 1 1 2 0 0 1.09545 3.04884 -3.36847 4.99997 1.7768 0. -1
 -15 1 1 2 0 0 -1.09545 -3.04884 3.36832 4.99987 1.7768 0. 1
</event>
<event>
 4 80 1 -1 -1 -1
 11 -1 0 0 0 0 0 0 5 5 0 0. 9.
 -11 -1 0 0 0 0 0 0 -3.94375 3.94375 0 0. 9.
 15 1 1 2 0 0 2.70075 -2.98439 1.13267 4.54327 1.7768 0. 1
 -15 1 1 2 0 0 -2.70075 2.98439 -0.0764155 4.40048 1.7768 0. -1
</event>
<event>
 4 80 1 -1 -1 -1
 11 -1 0 0 0 0 0 0 4.99831 4.99831 0 0. 9.
 -11 -1 0 0 0 0 0 0 -4.99816 4.99816 0 0. 9.
 15 1 1 2 0 0 3.40564 -2.68946 -1.72998 4.99821 1.7768 0. -1
 -15 1 1 2 0 0 -3.40564 2.68946 1.73012 4.99826 1.7768 0. 1
</event>
<event>
 4 80 1 -1 -1 -1
 11 -1 0 0 0 0 0 0 4.15041 4.15041 0 0. 9.
 -11 -1 0 0 0 0 0 0 -5 5 0 0. 9.
 15 1 1 2 0 0 -1.30172 3.62593 -2.09104 4.72991 1.7768 0. -1
 -15 1 1 2 0 0 1.30172 -3.62593 1.24145 4.4205 1.7768 0. 1
</event>
<event>
 4 80 1 -1 -1 -1
 11 -1 0 0 0 0 0 0 5 5 0 0. 9.
 -11 -1 0 0 0 0 0 0 -5 5 0 0. 9.
 15 1 1 2 0 0 2.70076 -2.50249 -2.87849 5 1.7768 0. 1
 -15 1 1 2 0 0 -2.70076 2.50249 2.87849 5 1.7768 0. -1
</event>
<event>
 4 80 1 -1 -1 -1
 11 -1 0 0 0 0 0 0 4.99998 4.99998 0 0. 9.
 -11 -1 0 0 0 0 0 0 -4.99302 4.99302 0 0. 9.
 15 1 1 2 0 0 -1.45715 -0.597683 4.39971 4.99957 1.7768 0. -1
 -15 1 1 2 0 0 1.45715 0.597683 -4.39274 4.99344 1.7768 0. 1
</event>
<event>
 4 80 1 -1 -1 -1
 11 -1 0 0 0 0 0 0 5 5 0 0. 9.
 -11 -1 0 0 0 0 0 0 -4.99999 4.99999 0 0. 9.
 15 1 1 2 0 0 0.899344 -0.682595 -4.53513 4.99999 1.7768 0. 1
 -15 1 1 2 0 0 -0.899344 0.682595 4.53514 5 1.7768 0. -1
</event>
<event>
 4 80 1 -1 -1 -1
 11 -1 0 0 0 0 0 0 5 5 0 0. 9.
 -11 -1 0 0 0 0 0 0 -5 5 0 0. 9.
 15 1 1 2 0 0 4.36286 -1.09282 1.27023 5 1.7768 0. 1
 -15 1 1 2 0 0 -4.36286 1.09282 -1.27023 5 1.7768 0. -1
</event>
<event>
 4 80 1 -1 -1 -1
 11 -1 0 0 0 0 0 0 4.8411 4.8411 0 0. 9.
 -11 -1 0 0 0 0 0 0 -4.9915 4.9915 0 0. 9.
 15 1 1 2 0 0 -0.450149 -3.70386 2.58695 4.87558 1.7768 0. -1
 -15 1 1 2 0 0 0.450149 3.70386 -2.73735 4.95702 1.7768 0. 1
</event>
<event>
 4 80 1 -1 -1 -1
 11 -1 0 0 0 0 0 0 5 5 0 0. 9.
 -11 -1 0 0 0 0 0 0 -5 5 0 0. 9.
 15 1 1 2 0 0 -2.3179 -4.05227 0.220791 5 1.7768 0. 1
 -15 1 1 2 0 0 2.3179 4.05227 -0.220791 5 1.7768 0. -1
</event>
<event>
 4 80 1 -1 -1 -1
 11 -1 0 0 0 0 0 0 4.99999 4.99999 0 0. 9.
 -11 -1 0 0 0 0 0 0 -5 5 0 0. 9.
 15 1 1 2 0 0 4.2954 1.19689 -1.39972 5 1.7768 0. -1
 -15 1 1 2 0 0 -4.2954 -1.19689 1.39972 5 1.7768 0. 1
</event>
<event>
 4 80 1 -1 -1 -1
 11 -1 0 0 0 0 0 0 5 5 0 0. 9.
 -11 -1 0 0 0 0 0 0 -5 5 0 0. 9.
 15 1 1 2 0 0 -2.50153 3.48483 1.85487 5 1.7768 0. 1
 -15 1 1 2 0 0 2.50153 -3.48483 -1.85487 5 1.7768 0. -1
</event>
<event>
 4 80 1 -1 -1 -1
 11 -1 0 0 0 0 0 0 5 5 0 0. 9.
 -11 -1 0 0 0 0 0 0 -4.99998 4.99998 0 0. 9.
 15 1 1 2 0 0 -2.41706 3.16771 2.44247 5 1.7768 0. 1
 -15 1 1 2 0 0 2.41706 -3.16771 -2.44245 4.99999 1.7768 0. -1
</event>
<event>
 4 80 1 -1 -1 -1
 11 -1 0 0 0 0 0 0 5 5 0 0. 9.
 -11 -1 0 0 0 0 0 0 -5 5 0 0. 9.
 15 1 1 2 0 0 -0.931174 -4.33899 1.46572 5 1.7768 0. 1
 -15 1 1 2 0 0 0.931174 4.33899 -1.46572 5 1.7768 0. -1
</event>
<event>
 4 80 1 -1 -1 -1
 11 -1 0 0 0 0 0 0 1.36945 1.36945 0 0. 9.
 -11 -1 0 0 0 0 0 0 -4.99237 4.99237 0 0. 9.
 15 1 1 2 0 0 -0.367536 1.20968 -0.056667 2.18159 1.7768 0. 1
 -15 1 1 2 0 0 0.367536 -1.20968 -3.56625 4.18022 1.7768 0. -1
</event>
<event>
 4 80 1 -1 -1 -1
 11 -1 0 0 0 0 0 0 5 5 0 0. 9.
 -11 -1 0 0 0 0 0 0 -4.99999 4.99999 0 0. 9.
 15 1 1 2 0 0 -2.57784 0.615916 -3.84936 4.99999 1.7768 0. 1
 -15 1 1 2 0 0 2.57784 -0.615916 3.84937 5 1.7768 0. -1
</event>
<event>
 4 80 1 -1 -1 -1
 11 -1 0 0 0 0 0 0 5 5 0 0. 9.
 -11 -1 0 0 0 0 0 0 -5 5 0 0. 9.
 15 1 1 2 0 0 -2.09681 -0.246639 4.16951 5 1.7768 0. -1
 -15 1 1 2 0 0 2.09681 0.246639 -4.16951 5 1.7768 0. 1
</event>
<event>
 4 80 1 -1 -1 -1
 11 -1 0 0 0 0 0 0 5 5 0 0. 9.
 -11 -1 0 0 0 0 0 0 -0.991917 0.991917 0 0. 9.
 15 1 1 2 0 0 1.28525 0.105067 2.50552 3.33141 1.7768 0. -1
 -15 1 1 2 0 0 -1.28525 -0.105067 1.50256 2.66051 1.7768 0. 1
</event>
<event>
 4 80 1 -1 -1 -1
 11 -1 0 0 0 0 0 0 5 5 0 0. 9.
 -11 -1 0 0 0 0 0 0 -4.99998 4.99998 0 0. 9.
 15 1 1 2 0 0 -4.34968 1.33251 1.07089 4.99999 1.7768 0. 1
 -15 1 1 2 0 0 4.34968 -1.33251 -1.07087 4.99998 1.7768 0. -1
</event>
<event>
 4 80 1 -1 -1 -1
 11 -1 0 0 0 0 0 0 5 5 0 0. 9.
 -11 -1 0 0 0 0 0 0 -5 5 0 0. 9.
 15 1 1 2 0 0 4.57823 0.355785 -0.869194 5 1.7768 0. 1
 -15 1 1 2 0 0 -4.57823 -0.355785 0.869194 5 1.7768 0. -1
</event>
<event>
 4 80 1 -1 -1 -1
 11 -1 0 0 0 0 0 0 4.99999 4.99999 0 0. 9.
 -11 -1 0 0 0 0 0 0 -4.3195 4.3195 0 0. 9.
 15 1 1 2 0 0 0.920022 -1.27929 -3.66503 4.36729 1.7768 0. 1
 -15 1 1 2 0 0 -0.920022 1.27929 4.34552 4.9522 1.7768 0. -1
</event>
<event>
 4 80 1 -1 -1 -1
 11 -1 0 0 0 0 0 0 5 5 0 0. 9.
 -11 -1 0 0 0 0 0 0 -5 5 0 0. 9.
 15 1 1 2 0 0 -1.37906 -3.22822 -3.08529 5 1.7768 0. 1
 -15 1 1 2 0 0 1.37906 3.22822 3.08529 5 1.7768 0. -1
</event>
<event>
 4 80 1 -1 -1 -1
 11 -1 0 0 0 0 0 0 4.97876 4.97876 0 0. 9.
 -11 -1 0 0 0 0 0 0 -5 5 0 0. 9.
 15 1 1 2 0 0 -0.905948 -2.30172 3.94128 4.98097 1.7768 0. 1
 -15 1 1 2 0 0 0.905948 2.30172 -3.96252 4.99779 1.7768 0. -1
</event>
<event>
 4 80 1 -1 -1 -1
 11 -1 0 0 0 0 0 0 5 5 0 0. 9.
 -11 -1 0 0 0 0 0 0 -5 5 0 0. 9.
 15 1 1 2 0 0 0.746013 1.8142 -4.24198 5 1.7768 0. -1
 -15 1 1 2 0 0 -0.746013 -1.8142 4.24198 5 1.7768 0. 1
</event>
<event>
 4 80 1 -1 -1 -1
 11 -1 0 0 0 0 0 0 4.99816 4.99816 0 0. 9.
 -11 -1 0 0 0 0 0 0 -5 5 0 0. 9.
 15 1 1 2 0 0 -0.708976 1.94302 -4.1908 4.99985 1.7768 0. -1
 -15 1 1 2 0 0 0.708976 -1.94302 4.18896 4.9983 1.7768 0. 1
</event>
<event>
 4 80 1 -1 -1 -1
 11 -1 0 0 0 0 0 0 2.43455 2.43455 0 0. 9.
 -11 -1 0 0 0 0 0 0 -5 5 0 0. 9.
 15 1 1 2 0 0 -1.98927 -2.24783 -1.20685 3.69109 1.7768 0. 1
 -15 1 1 2 0 0 1.98927 2.24783 -1.3586 3.74346 1.7768 0. -1
</event>
<event>
 4 80 1 -1 -1 -1
 11 -1 0 0 0 0 0 0 4.45439 4.45439 0 0. 9.
 -11 -1 0 0 0 0 0 0 -5 5 0 0. 9.
 15 1 1 2 0 0 -3.35785 -2.56349 0.854933 4.66211 1.7768 0. 1
 -15 1 1 2 0 0 3.35785 2.56349 -1.40054 4.79228 1.7768 0. -1
</event>
<event>
 4 80 1 -1 -1 -1
 11 -1 0 0 0 0 0 0 5 5 0 0. 9.
 -11 -1 0 0 0 0 0 0 -5 5 0 0. 9.
 15 1 1 2 0 0 -2.87199 2.28285 -2.89526 5 1.7768 0. -1
 -15 1 1 2 0 0 2.87199 -2.28285 2.89526 5 1.7768 0. 1
</event>
<event>
 4 80 1 -1 -1 -1
 11 -1 0 0 0 0 0 0 0.96447 0.96447 0 0. 9.
 -11 -1 0 0 0 0 0 0 -4.43735 4.43735 0 0. 9.
 15 1 1 2 0 0 -0.979415 -0.259606 -2.13952 2.96005 1.7768 0. 1
 -15 1 1 2 0 0 0.979415 0.259606 -1.33337 2.44177 1.7768 0. -1
</event>
<event>
 4 80 1 -1 -1 -1
 11 -1 0 0 0 0 0 0 4.85181 4.85181 0 0. 9.
 -11 -1 0 0 0 0 0 0 -4.99906 4.99906 0 0. 9.
 15 1 1 2 0 0 -1.29353 -1.67527 4.00322 4.86449 1.7768 0. -1
 -15 1 1 2 0 0 1.29353 1.67527 -4.15048 4.98638 1.7768 0. 1
</event>
<event>
 4 80 1 -1 -1 -1
 11 -1 0 0 0 0 0 0 4.89712 4.89712 0 0. 9.
 -11 -1 0 0 0 0 0 0 -5 5 0 0. 9.
 15 1 1 2 0 0 -0.857279 4.24608 1.5498 4.93191 1.7768 0. -1
 -15 1 1 2 0 0 0.857279 -4.24608 -1.65268 4.9652 1.7768 0. 1
</event>
<event>
 4 80 1 -1 -1 -1
 11 -1 0 0 0 0 0 0 3.55651 3.55651 0 0. 9.
 -11 -1 0 0 0 0 0 0 -5 5 0 0. 9.
 15 1 1 2 0 0 0.259692 3.56367 0.661017 4.04498 1.7768 0. -1
 -15 1 1 2 0 0 -0.259692 -3.56367 -2.10451 4.51153 1.7768 0. 1
</event>
<event>
 4 80 1 -1 -1 -1
 11 -1 0 0 0 0 0 0 5 5 0 0. 9.
 -11 -1 0 0 0 0 0 0 -5 5 0 0. 9.
 15 1 1 2 0 0 -3.78824 -0.90314 2.58376 5 1.7768 0. -1
 -15 1 1 2 0 0 3.78824 0.90314 -2.58376 5 1.7768 0. 1
</event>
<event>
 4 80 1 -1 -1 -1
 11 -1 0 0 0 0 0 0 4.99998 4.99998 0 0. 9.
 -11 -1 0 0 0 0 0 0 -5 5 0 0. 9.
 15 1 1 2 0 0 -1.50264 3.9973 1.8989 4.99999 1.7768 0. -1
 -15 1 1 2 0 0 1.50264 -3.9973 -1.89892 4.99999 1.7768 0. 1
</event>
<event>
 4 80 1 -1 -1 -1
 11 -1 0 0 0 0 0 0 5 5 0 0. 9.
 -11 -1 0 0 0 0 0 0 -5 5 0 0. 9.
 15 1 1 2 0 0 -0.230384 -0.0417228 4.6677 5 1.7768 0. -1
 -15 1 1 2 0 0 0.230384 0.0417228 -4.6677 5 1.7768 0. 1
</event>
<event>
 4 80 1 -1 -1 -1
 11 -1 0 0 0 0 0 0 5 5 0 0. 9.
 -11 -1 0 0 0 0 0 0 -5 5 0 0. 9.
 15 1 1 2 0 0 -3.09841 -3.20978 -1.39263 5 1.7768 0. 1
 -15 1 1 2 0 0 3.09841 3.20978 1.39263 5 1.7768 0. -1
</event>
<event>
 4 80 1 -1 -1 -1
 11 -1 0 0 0 0 0 0 4.99999 4.99999 0 0. 9.
 -11 -1 0 0 0 0 0 0 -4.99999 4.99999 0 0. 9.
 15 1 1 2 0 0 2.75408 -0.528084 3.73876 4.99999 1.7768 0. -1
 -15 1 1 2 0 0 -2.75408 0.528084 -3.73877 4.99999 1.7768 0. 1
</event>
<event>
 4 80 1 -1 -1 -1
 11 -1 0 0 0 0 0 0 4.31307 4.31307 0 0. 9.
 -11 -1 0 0 0 0 0 0 -4.94312 4.94312 0 0. 9.
 15 1 1 2 0 0 4.08271 -1.1973 -0.561116 4.64485 1.7768 0. 1
 -15 1 1 2 0 0 -4.08271 1.1973 -0.0689435 4.61134 1.7768 0. -1
</event>
<event>
 4 80 1 -1 -1 -1
 11 -1 0 0 0 0 0 0 4.99997 4.99997 0 0. 9.
 -11 -1 0 0 0 0 0 0 -2.62135 2.62135 0 0. 9.
 15 1 1 2 0 0 -1.451 -1.85198 -1.02203 3.1205 1.7768 0. -1
 -15 1 1 2 0 0 1.451 1.85198 3.40065 4.50082 1.7768 0. 1
</event>
<event>
 4 80 1 -1 -1 -1
 11 -1 0 0 0 0 0 0 5 5 0 0. 9.
 -11 -1 0 0 0 0 0 0 -4.99884 4.99884 0 0. 9.
 15 1 1 2 0 0 2.51653 3.73949 -1.23222 4.99928 1.7768 0. 1
 -15 1 1 2 0 0 -2.51653 -3.73949 1.23337 4.99956 1.7768 0. -1
</event>
<event>
 4 80 1 -1 -1 -1
 11 -1 0 0 0 0 0 0 4.99992 4.99992 0 0. 9.
 -11 -1 0 0 0 0 0 0 -4.57477 4.57477 0 0. 9.
 15 1 1 2 0 0 -2.04294 1.97251 -3.2042 4.63563 1.7768 0. -1
 -15 1 1 2 0 0 2.04294 -1.97251 3.62936 4.93907 1.7768 0. 1
</event>
<event>
 4 80 1 -1 -1 -1
 11 -1 0 0 0 0 0 0 5 5 0 0. 9.
 -11 -1 0 0 0 0 0 0 -4.65613 4.65613 0 0. 9.
 15 1 1 2 0 0 3.97547 1.21518 -1.51492 4.76799 1.7768 0. -1
 -15 1 1 2 0 0 -3.97547 -1.21518 1.85879 4.88814 1.7768 0. 1
</event>
<event>
 4 80 1 -1 -1 -1
 11 -1 0 0 0 0 0 0 5 5 0 0. 9.
 -11 -1 0 0 0 0 0 0 -4.56112 4.56112 0 0. 9.
 15 1 1 2 0 0 -0.760505 -1.20255 4.42189 4.97346 1.7768 0. 1
 -15 1 1 2 0 0 0.760505 1.20255 -3.98301 4.58766 1.7768 0. -1
</event>
<event>
 4 80 1 -1 -1 -1
 11 -1 0 0 0 0 0 0 4.95925 4.95925 0 0. 9.
 -11 -1 0 0 0 0 0 0 -5 5 0 0. 9.
 15 1 1 2 0 0 -1.53388 1.39105 4.14508 4.96258 1.7768 0. 1
 -15 1 1 2 0 0 1.53388 -1.39105 -4.18583 4.99667 1.7768 0. -1
</event>
<event>
 4 80 1 -1 -1 -1
 11 -1 0 0 0 0 0 0 5 5 0 0. 9.
 -11 -1 0 0 0 0 0 0 -5 5 0 0. 9.
 15 1 1 2 0 0 -3.93762 -2.2189 -1.18906 5 1.7768 0. -1
 -15 1 1 2 0 0 3.93762 2.2189 1.18906 5 1.7768 0. 1
</event>
<event>
 4 80 1 -1 -1 -1
 11 -1 0 0 0 0 0 0 5 5 0 0. 9.
 -11 -1 0 0 0 0 0 0 -1.37691 1.37691 0 0. 9.
 15 1 1 2 0 0 -0.704578 -1.79626 1.7364 3.14576 1.7768 0. -1
 -15 1 1 2 0 0 0.704578 1.79626 1.88669 3.23115 1.7768 0. 1
</event>
<event>
 4 80 1 -1 -1 -1
 11 -1 0 0 0 0 0 0 5 5 0 0. 9.
 -11 -1 0 0 0 0 0 0 -2.98174 2.98174 0 0. 9.
 15 1 1 2 0 0 -1.9437 1.49462 -1.46698 3.36476 1.7768 0. 1
 -15 1 1 2 0 0 1.9437 -1.49462 3.48524 4.61698 1.7768 0. -1
</event>
<event>
 4 80 1 -1 -1 -1
 11 -1 0 0 0 0 0 0 4.99995 4.99995 0 0. 9.
 -11 -1 0 0 0 0 0 0 -5 5 0 0. 9.
 15 1 1 2 0 0 -1.09851 4.4812 0.74436 4.99997 1.7768 0. -1
 -15 1 1 2 0 0 1.09851 -4.4812 -0.744414 4.99998 1.7768 0. 1
</event>
<event>
 4 80 1 -1 -1 -1
 11 -1 0 0 0 0 0 0 5 5 0 0. 9.
 -11 -1 0 0 0 0 0 0 -5 5 0 0. 9.
 15 1 1 2 0 0 1.7144 -0.582354 -4.30859 5 1.7768 0. -1
 -15 1 1 2 0 0 -1.7144 0.582354 4.30859 5 1.7768 0. 1
</event>
<event>
 4 80 1 -1 -1 -1
 11 -1 0 0 0 0 0 0 2.20743 2.20743 0 0. 9.
 -11 -1 0 0 0 0 0 0 -5 5 0 0. 9.
 15 1 1 2 0 0 2.22075 1.71389 -1.50633 3.64635 1.7768 0. 1
 -15 1 1 2 0 0 -2.22075 -1.71389 -1.28624 3.56108 1.7768 0. -1
</event>
<event>
 4 80 1 -1 -1 -1
 11 -1 0 0 0 0 0 0 5 5 0 0. 9.
 -11 -1 0 0 0 0 0 0 -4.99944 4.99944 0 0. 9.
 15 1 1 2 0 0 1.65994 0.376846 -4.35197 4.99948 1.7768 0. 1
 -15 1 1 2 0 0 -1.65994 -0.376846 4.35253 4.99996 1.7768 0. -1
</event>
<event>
 4 80 1 -1 -1 -1
 11 -1 0 0 0 0 0 0 5 5 0 0. 9.
 -11 -1 0 0 0 0 0 0 -5 5 0 0. 9.
 15 1 1 2 0 0 -2.70022 2.00682 -3.24403 5 1.7768 0. 1
 -15 1 1 2 0 0 2.70022 -2.00682 3.24403 5 1.7768 0. -1
</event>
<event>
 4 80 1 -1 -1 -1
 11 -1 0 0 0 0 0 0 5 5 0 0. 9.
 -11 -1 0 0 0 0 0 0 -5 5 0 0. 9.
 15 1 1 2 0 0 -0.0153368 4.38996 -1.60322 5 1.7768 0. -1
 -15 1 1 2 0 0 0.0153368 -4.38996 1.60322 5 1.7768 0. 1
</event>
<event>
 4 80 1 -1 -1 -1
 11 -1 0 0 0 0 0 0 5 5 0 0. 9.
 -11 -1 0 0 0 0 0 0 -5 5 0 0. 9.
 15 1 1 2 0 0 -0.353701 2.82892 -3.70329 5 1.7768 0. 1
 -15 1 1 2 0 0 0.353701 -2.82892 3.70329 5 1.7768 0. -1
</event>
<event>
 4 80 1 -1 -1 -1
 11 -1 0 0 0 0 0 0 5 5 0 0. 9.
 -11 -1 0 0 0 0 0 0 -4.99998 4.99998 0 0. 9.
 15 1 1 2 0 0 1.88054 4.07537 -1.30273 4.99999 1.7768 0. 1
 -15 1 1 2 0 0 -1.88054 -4.07537 1.30275 4.99999 1.7768 0. -1
</event>
<event>
 4 80 1 -1 -1 -1
 11 -1 0 0 0 0 0 0 5 5 0 0. 9.
 -11 -1 0 0 0 0 0 0 -4.6946 4.6946 0 0. 9.
 15 1 1 2 0 0 -3.3709 -2.37797 -1.66412 4.79007 1.7768 0. 1
 -15 1 1 2 0 0 3.3709 2.37797 1.96952 4.90453 1.7768 0. -1
</event>
<event>
 4 80 1 -1 -1 -1
 11 -1 0 0 0 0 0 0 4.87311 4.87311 0 0. 9.
 -11 -1 0 0 0 0 0 0 -5 5 0 0. 9.
 15 1 1 2 0 0 -3.45501 -1.26298 2.70726 4.90094 1.7768 0. 1
 -15 1 1 2 0 0 3.45501 1.26298 -2.83415 4.97216 1.7768 0. -1
</event>
<event>
 4 80 1 -1 -1 -1
 11 -1 0 0 0 0 0 0 5 5 0 0. 9.
 -11 -1 0 0 0 0 0 0 -4.99853 4.99853 0 0. 9.
 15 1 1 2 0 0 0.688758 4.34832 -1.56535 4.99903 1.7768 0. -1
 -15 1 1 2 0 0 -0.688758 -4.34832 1.56682 4.99949 1.7768 0. 1
</event>
<event>
 4 80 1 -1 -1 -1
 11 -1 0 0 0 0 0 0 5 5 0 0. 9.
 -11 -1 0 0 0 0 0 0 -4.99955 4.99955 0 0. 9.
 15 1 1 2 0 0 1.19576 -4.36739 -1.15564 4.99972 1.7768 0. 1
 -15 1 1 2 0 0 -1.19576 4.36739 1.15609 4.99983 1.7768 0. -1
</event>
<event>
 4 80 1 -1 -1 -1
 11 -1 0 0 0 0 0 0 4.98265 4.98265 0 0. 9.
 -11 -1 0 0 0 0 0 0 -4.99978 4.99978 0 0. 9.
 15 1 1 2 0 0 2.66188 3.27886 1.97082 4.98782 1.7768 0. 1
 -15 1 1 2 0 0 -2.66188 -3.27886 -1.98795 4.99462 1.7768 0. -1
</event>
<event>
 4 80 1 -1 -1 -1
 11 -1 0 0 0 0 0 0 5 5 0 0. 9.
 -11 -1 0 0 0 0 0 0 -5 5 0 0. 9.
 15 1 1 2 0 0 0.230259 -3.24127 -3.35908 5 1.7768 0. -1
 -15 1 1 2 0 0 -0.230259 3.24127 3.35908 5 1.7768 0. 1
</event>
<event>
 4 80 1 -1 -1 -1
 11 -1 0 0 0 0 0 0 4.99992 4.99992 0 0. 9.
 -11 -1 0 0 0 0 0 0 -5 5 0 0. 9.
 15 1 1 2 0 0 2.02086 -2.53124 -3.36914 4.99999 1.7768 0. -1
 -15 1 1 2 0 0 -2.02086 2.53124 3.36906 4.99993 1.7768 0. 1
</event>
<event>
 4 80 1 -1 -1 -1
 11 -1 0 0 0 0 0 0 4.78521 4.78521 0 0. 9.
 -11 -1 0 0 0 0 0 0 -4.97289 4.97289 0 0. 9.
 15 1 1 2 0 0 0.00798972 -1.52683 4.18566 4.79674 1.7768 0. 1
 -15 1 1 2 0 0 -0.00798972 1.52683 -4.37333 4.96136 1.7768 0. -1
</event>
<event>
 4 80 1 -1 -1 -1
 11 -1 0 0 0 0 0 0 2.16853 2.16853 0 0. 9.
 -11 -1 0 0 0 0 0 0 -5 5 0 0. 9.
 15 1 1 2 0 0 -2.2557 1.43114 -0.609504 3.26582 1.7768 0. 1
 -15 1 1 2 0 0 2.2557 -1.43114 -2.22196 3.90272 1.7768 0. -1
</event>
<event>
 4 80 1 -1 -1 -1
 11 -1 0 0 0 0 0 0 5 5 0 0. 9.
 -11 -1 0 0 0 0 0 0 -5 5 0 0. 9.
 15 1 1 2 0 0 -1.75146 -4.32543 -0.255496 5 1.7768 0. -1
 -15 1 1 2 0 0 1.75146 4.32543 0.255492 5 1.7768 0. 1
</event>
<event>
 4 80 1 -1 -1 -1
 11 -1 0 0 0 0 0 0 5 5 0 0. 9.
 -11 -1 0 0 0 0 0 0 -4.99999 4.99999 0 0. 9.
 15 1 1 2 0 0 -2.46548 2.15578 -3.33409 4.99999 1.7768 0. 1
 -15 1 1 2 0 0 2.46548 -2.15578 3.33411 5 1.7768 0. -1
</event>
<event>
 4 80 1 -1 -1 -1
 11 -1 0 0 0 0 0 0 5 5 0 0. 9.
 -11 -1 0 0 0 0 0 0 -4.99986 4.99986 0 0. 9.
 15 1 1 2 0 0 -1.5438 -0.595459 -4.3707 4.99987 1.7768 0. 1
 -15 1 1 2 0 0 1.5438 0.595459 4.37084 4.99999 1.7768 0. -1
</event>
<event>
 4 80 1 -1 -1 -1
 11 -1 0 0 0 0 0 0 4.99587 4.99587 0 0. 9.
 -11 -1 0 0 0 0 0 0 -1.42682 1.42682 0 0. 9.
 15 1 1 2 0 0 0.54494 -1.81228 1.03419 2.79439 1.7768 0. 1
 -15 1 1 2 0 0 -0.54494 1.81228 2.53486 3.6283 1.7768 0. -1
</event>
<event>
 4 80 1 -1 -1 -1
 11 -1 0 0 0 0 0 0 4.99954 4.99954 0 0. 9.
 -11 -1 0 0 0 0 0 0 -4.99997 4.99997 0 0. 9.
 15 1 1 2 0 0 2.7742 -3.16712 -2.02827 4.99984 1.7768 0. 1
 -15 1 1 2 0 0 -2.7742 3.16712 2.02784 4.99967 1.7768 0. -1
</event>
<event>
 4 80 1 -1 -1 -1
 11 -1 0 0 0 0 0 0 5 5 0 0. 9.
 -11 -1 0 0 0 0 0 0 -5 5 0 0. 9.
 15 1 1 2 0 0 1.11446 -3.25309 3.16507 5 1.7768 0. 1
 -15 1 1 2 0 0 -1.11446 3.25309 -3.16507 5 1.7768 0. -1
</event>
<event>
 4 80 1 -1 -1 -1
 11 -1 0 0 0 0 0 0 5 5 0 0. 9.
 -11 -1 0 0 0 0 0 0 -5 5 0 0. 9.
 15 1 1 2 0 0 4.67217 -0.0800174 -0.0815561 5 1.7768 0. 1
 -15 1 1 2 0 0 -4.67217 0.0800174 0.0815561 5 1.7768 0. -1
</event>
<event>
 4 80 1 -1 -1 -1
 11 -1 0 0 0 0 0 0 5 5 0 0. 9.
 -11 -1 0 0 0 0 0 0 -5 5 0 0. 9.
 15 1 1 2 0 0 1.17876 -3.91948 2.25621 5 1.7768 0. -1
 -15 1 1 2 0 0 -1.17876 3.91948 -2.25621 5 1.7768 0. 1
</event>
<event>
 4 80 1 -1 -1 -1
 11 -1 0 0 0 0 0 0 5 5 0 0. 9.
 -11 -1 0 0 0 0 0 0 -4.99998 4.99998 0 0. 9.
 15 1 1 2 0 0 1.94245 3.89207 1.70906 4.99999 1.7768 0. -1
 -15 1 1 2 0 0 -1.94245 -3.89207 -1.70904 4.99998 1.7768 0. 1
</event>
<event>
 4 80 1 -1 -1 -1
 11 -1 0 0 0 0 0 0 5 5 0 0. 9.
 -11 -1 0 0 0 0 0 0 -5 5 0 0. 9.
 15 1 1 2 0 0 3.4514 2.91558 -1.19562 5 1.7768 0. 1
 -15 1 1 2 0 0 -3.4514 -2.91558 1.19562 5 1.7768 0. -1
</event>
<event>
 4 80 1 -1 -1 -1
 11 -1 0 0 0 0 0 0 3.08393 3.08393 0 0. 9.
 -11 -1 0 0 0 0 0 0 -5 5 0 0. 9.
 15 1 1 2 0 0 -2.94124 -1.14616 -2.51819 4.41176 1.7768 0. -1
 -15 1 1 2 0 0 2.94124 1.14616 0.602117 3.67217 1.7768 0. 1
</event>
<event>
 4 80 1 -1 -1 -1
 11 -1 0 0 0 0 0 0 5 5 0 0. 9.
 -11 -1 0 0 0 0 0 0 -5 5 0 0. 9.
 15 1 1 2 0 0 -1.58671 3.40508 -2.78029 5 1.7768 0. 1
 -15 1 1 2 0 0 1.58671 -3.40508 2.78029 5 1.7768 0. -1
</event>
<event>
 4 80 1 -1 -1 -1
 11 -1 0 0 0 0 0 0 5 5 0 0. 9.
 -11 -1 0 0 0 0 0 0 -4.99999 4.99999 0 0. 9.
 15 1 1 2 0 0 2.98542 0.0270831 3.59566 5 1.7768 0. -1
 -15 1 1 2 0 0 -2.98542 -0.0270831 -3.59565 4.99999 1.7768 0. 1
</event>
<event>
 4 80 1 -1 -1 -1
 11 -1 0 0 0 0 0 0 5 5 0 0. 9.
 -11 -1 0 0 0 0 0 0 -5 5 0 0. 9.
 15 1 1 2 0 0 -1.35169 0.854551 -4.39146 5 1.7768 0. -1
 -15 1 1 2 0 0 1.35169 -0.854551 4.39146 5 1.7768 0. 1
</event>
<event>
 4 80 1 -1 -1 -1
 11 -1 0 0 0 0 0 0 5 5 0 0. 9.
 -11 -1 0 0 0 0 0 0 -2.93295 2.93295 0 0. 9.
 15 1 1 2 0 0 0.456223 0.461294 4.48223 4.86509 1.7768 0. -1
 -15 1 1 2 0 0 -0.456223 -0.461294 -2.41519 3.06786 1.7768 0. 1
</event>
<event>
 4 80 1 -1 -1 -1
 11 -1 0 0 0 0 0 0 3.67008 3.67008 0 0. 9.
 -11 -1 0 0 0 0 0 0 -4.70453 4.70453 0 0. 9.
 15 1 1 2 0 0 -3.36239 1.67282 -0.451325 4.17916 1.7768 0. -1
 -15 1 1 2 0 0 3.36239 -1.67282 -0.583133 4.19545 1.7768 0. 1
</event>
<event>
 4 80 1 -1 -1 -1
 11 -1 0 0 0 0 0 0 5 5 0 0. 9.
 -11 -1 0 0 0 0 0 0 -4.99699 4.99699 0 0. 9.
 15 1 1 2 0 0 3.53635 0.961324 2.89931 4.99937 1.7768 0. -1
 -15 1 1 2 0 0 -3.53635 -0.961324 -2.8963 4.99762 1.7768 0. 1
</event>
<event>
 4 80 1 -1 -1 -1
 11 -1 0 0 0 0 0 0 4.95846 4.95846 0 0. 9.
 -11 -1 0 0 0 0 0 0 -4.99999 4.99999 0 0. 9.
 15 1 1 2 0 0 2.68253 -3.76433 0.497311 4.97707 1.7768 0. 1
 -15 1 1 2 0 0 -2.68253 3.76433 -0.538845 4.98139 1.7768 0. -1
</event>
<event>
 4 80 1 -1 -1 -1
 11 -1 0 0 0 0 0 0 5 5 0 0. 9.
 -11 -1 0 0 0 0 0 0 -1.83242 1.83242 0 0. 9.
 15 1 1 2 0 0 -1.07381 0.330039 -0.874001 2.27675 1.7768 0. -1
 -15 1 1 2 0 0 1.07381 -0.330039 4.04158 4.55567 1.7768 0. 1
</event>
<event>
 4 80 1 -1 -1 -1
 11 -1 0 0 0 0 0 0 4.97099 4.97099 0 0. 9.
 -11 -1 0 0 0 0 0 0 -5 5 0 0. 9.
 15 1 1 2 0 0 -3.93521 2.25083 1.05559 4.98238 1.7768 0. -1
 -15 1 1 2 0 0 3.93521 -2.25083 -1.0846 4.98861 1.7768 0. 1
</event>
<event>
 4 80 1 -1 -1 -1
 11 -1 0 0 0 0 0 0 5 5 0 0. 9.
 -11 -1 0 0 0 0 0 0 -5 5 0 0. 9.
 15 1 1 2 0 0 2.40294 -0.435016 3.98483 5 1.7768 0. 1
 -15 1 1 2 0 0 -2.40294 0.435016 -3.98483 5 1.7768 0. -1
</event>
<event>
 4 80 1 -1 -1 -1
 11 -1 0 0 0 0 0 0 4.79126 4.79126 0 0. 9.
 -11 -1 0 0 0 0 0 0 -5 5 0 0. 9.
 15 1 1 2 0 0 -1.52262 -4.15202 1.00984 4.87187 1.7768 0. 1
 -15 1 1 2 0 0 1.52262 4.15202 -1.21859 4.91938 1.7768 0. -1
</event>
<event>
 4 80 1 -1 -1 -1
 11 -1 0 0 0 0 0 0 4.9996 4.9996 0 0. 9.
 -11 -1 0 0 0 0 0 0 -4.99996 4.99996 0 0. 9.
 15 1 1 2 0 0 3.48286 2.76143 1.44351 4.99972 1.7768 0. 1
 -15 1 1 2 0 0 -3.48286 -2.76143 -1.44387 4.99983 1.7768 0. -1
</event>
<event>
 4 80 1 -1 -1 -1
 11 -1 0 0 0 0 0 0 5 5 0 0. 9.
 -11 -1 0 0 0 0 0 0 -5 5 0 0. 9.
 15 1 1 2 0 0 -4.03722 -1.68058 -1.64889 5 1.7768 0. -1
 -15 1 1 2 0 0 4.03722 1.68058 1.64889 5 1.7768 0. 1
</event>
<event>
 4 80 1 -1 -1 -1
 11 -1 0 0 0 0 0 0 4.81943 4.81943 0 0. 9.
 -11 -1 0 0 0 0 0 0 -5 5 0 0. 9.
 15 1 1 2 0 0 0.818207 2.32329 -3.9474 4.98064 1.7768 0. 1
 -15 1 1 2 0 0 -0.818207 -2.32329 3.76683 4.83879 1.7768 0. -1
</event>
<event>
 4 80 1 -1 -1 -1
 11 -1 0 0 0 0 0 0 5 5 0 0. 9.
 -11 -1 0 0 0 0 0 0 -1.78842 1.78842 0 0. 9.
 15 1 1 2 0 0 -1.15966 1.82993 0.420255 2.83334 1.7768 0. 1
 -15 1 1 2 0 0 1.15966 -1.82993 2.79132 3.95508 1.7768 0. -1
</event>
<event>
 4 80 1 -1 -1 -1
 11 -1 0 0 0 0 0 0 4.99281 4.99281 0 0. 9.
 -11 -1 0 0 0 0 0 0 -5 5 0 0. 9.
 15 1 1 2 0 0 3.18205 2.55011 2.2719 4.99477 1.7768 0. -1
 -15 1 1 2 0 0 -3.18205 -2.55011 -2.27908 4.99804 1.7768 0. 1
</event>
<event>
 4 80 1 -1 -1 -1
 11 -1 0 0 0 0 0 0 5 5 0 0. 9.
 -11 -1 0 0 0 0 0 0 -5 5 0 0. 9.
 15 1 1 2 0 0 2.36243 -2.52553 3.14371 5 1.7768 0. -1
 -15 1 1 2 0 0 -2.36243 2.52553 -3.14371 5 1.7768 0. 1
</event>
<event>
 4 80 1 -1 -1 -1
 11 -1 0 0 0 0 0 0 5 5 0 0. 9.
 -11 -1 0 0 0 0 0 0 -5 5 0 0. 9.
 15 1 1 2 0 0 -2.34975 2.39385 3.2543 5 1.7768 0. -1
 -15 1 1 2 0 0 2.34975 -2.39385 -3.2543 5 1.7768 0. 1
</event>
<event>
 4 80 1 -1 -1 -1
 11 -1 0 0 0 0 0 0 5 5 0 0. 9.
 -11 -1 0 0 0 0 0 0 -5 5 0 0. 9.
 15 1 1 2 0 0 -2.17566 2.30354 -3.43547 5 1.7768 0. -1
 -15 1 1 2 0 0 2.17566 -2.30354 3.43547 5 1.7768 0. 1
</event>
<event>
 4 80 1 -1 -1 -1
 11 -1 0 0 0 0 0 0 4.99452 4.99452 0 0. 9.
 -11 -1 0 0 0 0 0 0 -5 5 0 0. 9.
 15 1 1 2 0 0 3.01274 2.43551 -2.61168 4.99869 1.7768 0. -1
 -15 1 1 2 0 0 -3.01274 -2.43551 2.6062 4.99583 1.7768 0. 1
</event>
<event>
 4 80 1 -1 -1 -1
 11 -1 0 0 0 0 0 0 5 5 0 0. 9.
 -11 -1 0 0 0 0 0 0 -4.99977 4.99977 0 0. 9.
 15 1 1 2 0 0 -2.28268 -3.34671 2.33036 4.99994 1.7768 0. 1
 -15 1 1 2 0 0 2.28268 3.34671 -2.33014 4.99983 1.7768 0. -1
</event>
<event>
 4 80 1 -1 -1 -1
 11 -1 0 0 0 0 0 0 5 5 0 0. 9.
 -11 -1 0 0 0 0 0 0 -4.02642 4.02642 0 0. 9.
 15 1 1 2 0 0 0.753962 -2.17988 3.92062 4.88358 1.7768 0. -1
 -15 1 1 2 0 0 -0.753962 2.17988 -2.94704 4.14284 1.7768 0. 1
</event>
<event>
 4 80 1 -1 -1 -1
 11 -1 0 0 0 0 0 0 4.74733 4.74733 0 0. 9.
 -11 -1 0 0 0 0 0 0 -4.99625 4.99625 0 0. 9.
 15 1 1 2 0 0 1.37996 -4.29751 -0.55849 4.88288 1.7768 0. -1
 -15 1 1 2 0 0 -1.37996 4.29751 0.309571 4.8607 1.7768 0. 1
</event>
<event>
 4 80 1 -1 -1 -1
 11 -1 0 0 0 0 0 0 4.9992 4.9992 0 0. 9.
 -11 -1 0 0 0 0 0 0 -4.99921 4.99921 0 0. 9.
 15 1 1 2 0 0 0.513101 4.37978 -1.54552 4.99921 1.7768 0. 1
 -15 1 1 2 0 0 -0.513101 -4.37978 1.54551 4.9992 1.7768 0. -1
</event>
<event>
 4 80 1 -1 -1 -1
 11 -1 0 0 0 0 0 0 5 5 0 0. 9.
 -11 -1 0 0 0 0 0 0 -4.99987 4.99987 0 0. 9.
 15 1 1 2 0 0 -0.616066 3.94642 -2.42641 4.9999 1.7768 0. 1
 -15 1 1 2 0 0 0.616066 -3.94642 2.42655 4.99997 1.7768 0. -1
</event>
<event>
 4 80 1 -1 -1 -1
 11 -1 0 0 0 0 0 0 4.99869 4.99869 0 0. 9.
 -11 -1 0 0 0 0 0 0 -5 5 0 0. 9.
 15 1 1 2 0 0 -0.776093 -3.59189 2.88582 4.99897 1.7768 0. -1
 -15 1 1 2 0 0 0.776093 3.59189 -2.88713 4.99972 1.7768 0. 1
</event>
<event>
 4 80 1 -1 -1 -1
 11 -1 0 0 0 0 0 0 4.99851 4.99851 0 0. 9.
 -11 -1 0 0 0 0 0 0 -5 5 0 0. 9.
 15 1 1 2 0 0 3.88333 -2.57534 0.348821 4.9992 1.7768 0. 1
 -15 1 1 2 0 0 -3.88333 2.57534 -0.350314 4.99931 1.7768 0. -1
</event>
<event>
 4 80 1 -1 -1 -1
 11 -1 0 0 0 0 0 0 4.99999 4.99999 0 0. 9.
 -11 -1 0 0 0 0 0 0 -5 5 0 0. 9.
 15 1 1 2 0 0 -2.01238 -3.35012 -2.56306 5 1.7768 0. 1
 -15 1 1 2 0 0 2.01238 3.35012 2.56305 4.99999 1.7768 0. -1
</event>
<event>
 4 80 1 -1 -1 -1
 11 -1 0 0 0 0 0 0 4.98844 4.98844 0 0. 9.
 -11 -1 0 0 0 0 0 0 -5 5 0 0. 9.
 15 1 1 2 0 0 -3.26953 2.62541 2.04407 4.99185 1.7768 0. 1
 -15 1 1 2 0 0 3.26953 -2.62541 -2.05562 4.99659 1.7768 0. -1
</event>
<event>
 4 80 1 -1 -1 -1
 11 -1 0 0 0 0 0 0 4.99996 4.99996 0 0. 9.
 -11 -1 0 0 0 0 0 0 -4.93803 4.93803 0 0. 9.
 15 1 1 2 0 0 -1.07854 2.17923 3.98325 4.99363 1.7768 0. 1
 -15 1 1 2 0 0 1.07854 -2.17923 -3.92132 4.94437 1.7768 0. -1
</event>
<event>
 4 80 1 -1 -1 -1
 11 -1 0 0 0 0 0 0 5 5 0 0. 9.
 -11 -1 0 0 0 0 0 0 -4.99489 4.99489 0 0. 9.
 15 1 1 2 0 0 2.58668 -0.275651 -3.87686 4.99546 1.7768 0. -1
 -15 1 1 2 0 0 -2.58668 0.275651 3.88197 4.99943 1.7768 0. 1
</event>
<event>
 4 80 1 -1 -1 -1
 11 -1 0 0 0 0 0 0 5 5 0 0. 9.
 -11 -1 0 0 0 0 0 0 -5 5 0 0. 9.
 15 1 1 2 0 0 0.423859 2.4538 3.95493 5 1.7768 0. 1
 -15 1 1 2 0 0 -0.423859 -2.4538 -3.95493 5 1.7768 0. -1
</event>
<event>
 4 80 1 -1 -1 -1
 11 -1 0 0 0 0 0 0 4.96723 4.96723 0 0. 9.
 -11 -1 0 0 0 0 0 0 -3.14767 3.14767 0 0. 9.
 15 1 1 2 0 0 -0.553095 2.71772 3.15453 4.56078 1.7768 0. 1
 -15 1 1 2 0 0 0.553095 -2.71772 -1.33497 3.55412 1.7768 0. -1
</event>
<event>
 4 80 1 -1 -1 -1
 11 -1 0 0 0 0 0 0 4.99993 4.99993 0 0. 9.
 -11 -1 0 0 0 0 0 0 -5 5 0 0. 9.
 15 1 1 2 0 0 3.51136 -2.86912 1.13153 4.99996 1.7768 0. -1
 -15 1 1 2 0 0 -3.51136 2.86912 -1.13161 4.99997 1.7768 0. 1
</event>
<event>
 4 80 1 -1 -1 -1
 11 -1 0 0 0 0 0 0 5 5 0 0. 9.
 -11 -1 0 0 0 0 0 0 -5 5 0 0. 9.
 15 1 1 2 0 0 1.38412 4.13342 1.68561 5 1.7768 0. 1
 -15 1 1 2 0 0 -1.38412 -4.13342 -1.68561 5 1.7768 0. -1
</event>
<event>
 4 80 1 -1 -1 -1
 11 -1 0 0 0 0 0 0 4.75245 4.75245 0 0. 9.
 -11 -1 0 0 0 0 0 0 -5 5 0 0. 9.
 15 1 1 2 0 0 -3.65819 0.426719 -2.77794 4.9436 1.7768 0. -1
 -15 1 1 2 0 0 3.65819 -0.426719 2.53039 4.80885 1.7768 0. 1
</event>
<event>
 4 80 1 -1 -1 -1
 11 -1 0 0 0 0 0 0 5 5 0 0. 9.
 -11 -1 0 0 0 0 0 0 -5 5 0 0. 9.
 15 1 1 2 0 0 2.1919 2.16451 3.51464 5 1.7768 0. -1
 -15 1 1 2 0 0 -2.1919 -2.16451 -3.51464 5 1.7768 0. 1
</event>
<event>
 4 80 1 -1 -1 -1
 11 -1 0 0 0 0 0 0 5 5 0 0. 9.
 -11 -1 0 0 0 0 0 0 -5 5 0 0. 9.
 15 1 1 2 0 0 -0.862595 4.51644 -0.836649 5 1.7768 0. -1
 -15 1 1 2 0 0 0.862595 -4.51644 0.836649 5 1.7768 0. 1
</event>
<event>
 4 80 1 -1 -1 -1
 11 -1 0 0 0 0 0 0 5 5 0 0. 9.
 -11 -1 0 0 0 0 0 0 -5 5 0 0. 9.
 15 1 1 2 0 0 -2.20314 2.40348 -3.34839 5 1.7768 0. 1
 -15 1 1 2 0 0 2.20314 -2.40348 3.34839 5 1.7768 0. -1
</event>
<event>
 4 80 1 -1 -1 -1
 11 -1 0 0 0 0 0 0 3.38091 3.38091 0 0. 9.
 -11 -1 0 0 0 0 0 0 -5 5 0 0. 9.
 15 1 1 2 0 0 -2.343 1.05472 1.91474 3.66416 1.7768 0. 1
 -15 1 1 2 0 0 2.343 -1.05472 -3.53383 4.71675 1.7768 0. -1
</event>
<event>
 4 80 1 -1 -1 -1
 11 -1 0 0 0 0 0 0 5 5 0 0. 9.
 -11 -1 0 0 0 0 0 0 -3.58637 3.58637 0 0. 9.
 15 1 1 2 0 0 0.0216198 -1.11916 4.4348 4.90695 1.7768 0. -1
 -15 1 1 2 0 0 -0.0216198 1.11916 -3.02117 3.67942 1.7768 0. 1
</event>
<event>
 4 80 1 -1 -1 -1
 11 -1 0 0 0 0 0 0 4.99999 4.99999 0 0. 9.
 -11 -1 0 0 0 0 0 0 -5 5 0 0. 9.
 15 1 1 2 0 0 -2.19965 2.69611 3.12005 4.99999 1.7768 0. 1
 -15 1 1 2 0 0 2.19965 -2.69611 -3.12006 5 1.7768 0. -1
</event>
<event>
 4 80 1 -1 -1 -1
 11 -1 0 0 0 0 0 0 4.99572 4.99572 0 0. 9.
 -11 -1 0 0 0 0 0 0 -5 5 0 0. 9.
 15 1 1 2 0 0 -2.9145 0.975715 -3.51989 4.99937 1.7768 0. -1
 -15 1 1 2 0 0 2.9145 -0.975715 3.51561 4.99636 1.7768 0. 1
</event>
<event>
 4 80 1 -1 -1 -1
 11 -1 0 0 0 0 0 0 3.10603 3.10603 0 0. 9.
 -11 -1 0 0 0 0 0 0 -5 5 0 0. 9.
 15 1 1 2 0 0 2.86559 -2.02915 -1.16115 4.10305 1.7768 0. -1
 -15 1 1 2 0 0 -2.86559 2.02915 -0.732821 4.00297 1.7768 0. 1
</event>
<event>
 4 80 1 -1 -1 -1
 11 -1 0 0 0 0 0 0 4.99993 4.99993 0 0. 9.
 -11 -1 0 0 0 0 0 0 -4.99421 4.99421 0 0. 9.
 15 1 1 2 0 0 -0.195604 0.0382754 4.66904 4.99974 1.7768 0. 1
 -15 1 1 2 0 0 0.195604 -0.0382754 -4.66332 4.9944 1.7768 0. -1
</event>
<event>
 4 80 1 -1 -1 -1
 11 -1 0 0 0 0 0 0 5 5 0 0. 9.
 -11 -1 0 0 0 0 0 0 -5 5 0 0. 9.
 15 1 1 2 0 0 -1.79588 2.78037 -3.29949 5 1.7768 0. 1
 -15 1 1 2 0 0 1.79588 -2.78037 3.29949 5 1.7768 0. -1
</event>
<event>
 4 80 1 -1 -1 -1
 11 -1 0 0 0 0 0 0 4.99997 4.99997 0 0. 9.
 -11 -1 0 0 0 0 0 0 -3.71372 3.71372 0 0. 9.
 15 1 1 2 0 0 1.60664 -3.13554 2.39373 4.61525 1.7768 0. 1
 -15 1 1 2 0 0 -1.60664 3.13554 -1.10748 4.09843 1.7768 0. -1
</event>
<event>
 4 80 1 -1 -1 -1
 11 -1 0 0 0 0 0 0 5 5 0 0. 9.
 -11 -1 0 0 0 0 0 0 -5 5 0 0. 9.
 15 1 1 2 0 0 0.587922 -4.05676 2.24484 5 1.7768 0. 1
 -15 1 1 2 0 0 -0.587922 4.05676 -2.24484 5 1.7768 0. -1
</event>
<event>
 4 80 1 -1 -1 -1
 11 -1 0 0 0 0 0 0 4.99985 4.99985 0 0. 9.
 -11 -1 0 0 0 0 0 0 -5 5 0 0. 9.
 15 1 1 2 0 0 -3.41871 1.30289 -2.90807 4.99997 1.7768 0. 1
 -15 1 1 2 0 0 3.41871 -1.30289 2.90791 4.99988 1.7768 0. -1
</event>
<event>
 4 80 1 -1 -1 -1
 11 -1 0 0 0 0 0 0 4.96951 4.96951 0 0. 9.
 -11 -1 0 0 0 0 0 0 -3.75187 3.75187 0 0. 9.
 15 1 1 2 0 0 1.80853 -1.40587 3.84047 4.81188 1.7768 0. 1
 -15 1 1 2 0 0 -1.80853 1.40587 -2.62283 3.9095 1.7768 0. -1
</event>
<event>
 4 80 1 -1 -1 -1
 11 -1 0 0 0 0 0 0 4.82403 4.82403 0 0. 9.
 -11 -1 0 0 0 0 0 0 -4.99944 4.99944 0 0. 9.
 15 1 1 2 0 0 -1.34302 2.09538 3.75549 4.84311 1.7768 0. 1
 -15 1 1 2 0 0 1.34302 -2.09538 -3.9309 4.98036 1.7768 0. -1
</event>
<event>
 4 80 1 -1 -1 -1
 11 -1 0 0 0 0 0 0 4.99077 4.99077 0 0. 9.
 -11 -1 0 0 0 0 0 0 -5 5 0 0. 9.
 15 1 1 2 0 0 -3.35508 1.89777 -2.63863 4.99782 1.7768 0. 1
 -15 1 1 2 0 0 3.35508 -1.89777 2.6294 4.99295 1.7768 0. -1
</event>
<event>
 4 80 1 -1 -1 -1
 11 -1 0 0 0 0 0 0 4.99997 4.99997 0 0. 9.
 -11 -1 0 0 0 0 0 0 -4.99935 4.99935 0 0. 9.
 15 1 1 2 0 0 2.81651 -2.25293 -2.9713 4.99948 1.7768 0. 1
 -15 1 1 2 0 0 -2.81651 2.25293 2.97192 4.99985 1.7768 0. -1
</event>
<event>
 4 80 1 -1 -1 -1
 11 -1 0 0 0 0 0 0 4.53068 4.53068 0 0. 9.
 -11 -1 0 0 0 0 0 0 -4.99996 4.99996 0 0. 9.
 15 1 1 2 0 0 3.95776 -1.88031 -0.779362 4.79214 1.7768 0. -1
 -15 1 1 2 0 0 -3.95776 1.88031 0.310083 4.7385 1.7768 0. 1
</event>
<event>
 4 80 1 -1 -1 -1
 11 -1 0 0 0 0 0 0 5 5 0 0. 9.
 -11 -1 0 0 0 0 0 0 -4.95826 4.95826 0 0. 9.
 15 1 1 2 0 0 -0.94518 0.202202 4.57056 4.9982 1.7768 0. 1
 -15 1 1 2 0 0 0.94518 -0.202202 -4.52882 4.96006 1.7768 0. -1
</event>
<event>
 4 80 1 -1 -1 -1
 11 -1 0 0 0 0 0 0 5 5 0 0. 9.
 -11 -1 0 0 0 0 0 0 -3.42616 3.42616 0 0. 9.
 15 1 1 2 0 0 -1.82414 -3.25698 0.984397 4.24996 1.7768 0. -1
 -15 1 1 2 0 0 1.82414 3.25698 0.589444 4.17619 1.7768 0. 1
</event>
<event>
 4 80 1 -1 -1 -1
 11 -1 0 0 0 0 0 0 5 5 0 0. 9.
 -11 -1 0 0 0 0 0 0 -4.99995 4.99995 0 0. 9.
 15 1 1 2 0 0 -2.7509 1.98592 3.21417 4.99999 1.7768 0. 1
 -15 1 1 2 0 0 2.7509 -1.98592 -3.21412 4.99996 1.7768 0. -1
</event>
<event>
 4 80 1 -1 -1 -1
 11 -1 0 0 0 0 0 0 4.9371 4.9371 0 0. 9.
 -11 -1 0 0 0 0 0 0 -4.94663 4.94663 0 0. 9.
 15 1 1 2 0 0 -2.32991 -0.406702 -3.96335 4.94568 1.7768 0. -1
 -15 1 1 2 0 0 2.32991 0.406702 3.95382 4.93805 1.7768 0. 1
</event>
<event>
 4 80 1 -1 -1 -1
 11 -1 0 0 0 0 0 0 5 5 0 0. 9.
 -11 -1 0 0 0 0 0 0 -5 5 0 0. 9.
 15 1 1 2 0 0 -2.38236 -3.08207 -2.58214 5 1.7768 0. 1
 -15 1 1 2 0 0 2.38236 3.08207 2.58214 5 1.7768 0. -1
</event>
<event>
 4 80 1 -1 -1 -1
 11 -1 0 0 0 0 0 0 5 5 0 0. 9.
 -11 -1 0 0 0 0 0 0 -4.93832 4.93832 0 0. 9.
 15 1 1 2 0 0 -2.59159 -1.11192 -3.65449 4.94629 1.7768 0. 1
 -15 1 1 2 0 0 2.59159 1.11192 3.71617 4.99203 1.7768 0. -1
</event>
<event>
 4 80 1 -1 -1 -1
 11 -1 0 0 0 0 0 0 4.99994 4.99994 0 0. 9.
 -11 -1 0 0 0 0 0 0 -5 5 0 0. 9.
 15 1 1 2 0 0 3.18107 -3.1602 1.31749 4.99996 1.7768 0. 1
 -15 1 1 2 0 0 -3.18107 3.1602 -1.31756 4.99998 1.7768 0. -1
</event>
<event>
 4 80 1 -1 -1 -1
 11 -1 0 0 0 0 0 0 4.8912 4.8912 0 0. 9.
 -11 -1 0 0 0 0 0 0 -5 5 0 0. 9.
 15 1 1 2 0 0 -1.01703 -0.789613 4.37763 4.89685 1.7768 0. -1
 -15 1 1 2 0 0 1.01703 0.789613 -4.48642 4.99435 1.7768 0. 1
</event>
<event>
 4 80 1 -1 -1 -1
 11 -1 0 0 0 0 0 0 5 5 0 0. 9.
 -11 -1 0 0 0 0 0 0 -4.99981 4.99981 0 0. 9.
 15 1 1 2 0 0 -1.3432 -0.411511 4.45743 4.99999 1.7768 0. -1
 -15 1 1 2 0 0 1.3432 0.411511 -4.45724 4.99982 1.7768 0. 1
</event>
<event>
 4 80 1 -1 -1 -1
 11 -1 0 0 0 0 0 0 5 5 0 0. 9.
 -11 -1 0 0 0 0 0 0 -4.98107 4.98107 0 0. 9.
 15 1 1 2 0 0 -0.0207545 -2.18987 -4.10778 4.98273 1.7768 0. 1
 -15 1 1 2 0 0 0.0207545 2.18987 4.12671 4.99834 1.7768 0. -1
</event>
<event>
 4 80 1 -1 -1 -1
 11 -1 0 0 0 0 0 0 5 5 0 0. 9.
 -11 -1 0 0 0 0 0 0 -5 5 0 0. 9.
 15 1 1 2 0 0 1.83817 -1.10076 -4.15352 5 1.7768 0. -1
 -15 1 1 2 0 0 -1.83817 1.10076 4.15352 5 1.7768 0. 1
</event>
<event>
 4 80 1 -1 -1 -1
 11 -1 0 0 0 0 0 0 5 5 0 0. 9.
 -11 -1 0 0 0 0 0 0 -5 5 0 0. 9.
 15 1 1 2 0 0 0.900521 -2.10983 4.07185 5 1.7768 0. -1
 -15 1 1 2 0 0 -0.900521 2.10983 -4.07185 5 1.7768 0. 1
</event>
<event>
 4 80 1 -1 -1 -1
 11 -1 0 0 0 0 0 0 5 5 0 0. 9.
 -11 -1 0 0 0 0 0 0 -5 5 0 0. 9.
 15 1 1 2 0 0 0.701867 4.10968 2.11192 5 1.7768 0. -1
 -15 1 1 2 0 0 -0.701867 -4.10968 -2.11192 5 1.7768 0. 1
</event>
<event>
 4 80 1 -1 -1 -1
 11 -1 0 0 0 0 0 0 3.09616 3.09616 0 0. 9.
 -11 -1 0 0 0 0 0 0 -5 5 0 0. 9.
 15 1 1 2 0 0 1.9242 0.194945 2.06219 3.3393 1.7768 0. -1
 -15 1 1 2 0 0 -1.9242 -0.194945 -3.96604 4.75686 1.7768 0. 1
</event>
<event>
 4 80 1 -1 -1 -1
 11 -1 0 0 0 0 0 0 1.11165 1.11165 0 0. 9.
 -11 -1 0 0 0 0 0 0 -5 5 0 0. 9.
 15 1 1 2 0 0 0.460575 1.26874 -0.958154 2.4285 1.7768 0. -1
 -15 1 1 2 0 0 -0.460575 -1.26874 -2.93019 3.68315 1.7768 0. 1
</event>
<event>
 4 80 1 -1 -1 -1
 11 -1 0 0 0 0 0 0 2.56363 2.56363 0 0. 9.
 -11 -1 0 0 0 0 0 0 -4.99999 4.99999 0 0. 9.
 15 1 1 2 0 0 1.3029 1.202 -3.91496 4.65049 1.7768 0. 1
 -15 1 1 2 0 0 -1.3029 -1.202 1.4786 2.91313 1.7768 0. -1
</event>
<event>
 4 80 1 -1 -1 -1
 11 -1 0 0 0 0 0 0 5 5 0 0. 9.
 -11 -1 0 0 0 0 0 0 -4.99991 4.99991 0 0. 9.
 15 1 1 2 0 0 3.64273 0.884995 2.79094 4.99998 1.7768 0. -1
 -15 1 1 2 0 0 -3.64273 -0.884995 -2.79086 4.99993 1.7768 0. 1
</event>
<event>
 4 80 1 -1 -1 -1
 11 -1 0 0 0 0 0 0 4.15012 4.15012 0 0. 9.
 -11 -1 0 0 0 0 0 0 -5 5 0 0. 9.
 15 1 1 2 0 0 1.40599 3.94524 -0.197793 4.55396 1.7768 0. 1
 -15 1 1 2 0 0 -1.40599 -3.94524 -0.652084 4.59616 1.7768 0. -1
</event>
<event>
 4 80 1 -1 -1 -1
 11 -1 0 0 0 0 0 0 5 5 0 0. 9.
 -11 -1 0 0 0 0 0 0 -5 5 0 0. 9.
 15 1 1 2 0 0 -2.75087 -3.42723 1.59031 5 1.7768 0. 1
 -15 1 1 2 0 0 2.75087 3.42723 -1.59031 5 1.7768 0. -1
</event>
<event>
 4 80 1 -1 -1 -1
 11 -1 0 0 0 0 0 0 5 5 0 0. 9.
 -11 -1 0 0 0 0 0 0 -5 5 0 0. 9.
 15 1 1 2 0 0 3.57218 2.38249 -1.84541 5 1.7768 0. -1
 -15 1 1 2 0 0 -3.57218 -2.38249 1.84541 5 1.7768 0. 1
</event>
<event>
 4 80 1 -1 -1 -1
 11 -1 0 0 0 0 0 0 5 5 0 0. 9.
 -11 -1 0 0 0 0 0 0 -5 5 0 0. 9.
 15 1 1 2 0 0 2.69321 -1.40393 -3.55216 5 1.7768 0. 1
 -15 1 1 2 0 0 -2.69321 1.40393 3.55216 5 1.7768 0. -1
</event>
<event>
 4 80 1 -1 -1 -1
 11 -1 0 0 0 0 0 0 4.90505 4.90505 0 0. 9.
 -11 -1 0 0 0 0 0 0 -2.87758 2.87758 0 0. 9.
 15 1 1 2 0 0 0.714206 3.23166 1.07259 3.90665 1.7768 0. -1
 -15 1 1 2 0 0 -0.714206 -3.23166 0.954881 3.87598 1.7768 0. 1
</event>
<event>
 4 80 1 -1 -1 -1
 11 -1 0 0 0 0 0 0 4.49883 4.49883 0 0. 9.
 -11 -1 0 0 0 0 0 0 -5 5 0 0. 9.
 15 1 1 2 0 0 0.0867863 1.61389 -4.34582 4.96548 1.7768 0. 1
 -15 1 1 2 0 0 -0.0867863 -1.61389 3.84465 4.53335 1.7768 0. -1
</event>
<event>
 4 80 1 -1 -1 -1
 11 -1 0 0 0 0 0 0 4.78874 4.78874 0 0. 9.
 -11 -1 0 0 0 0 0 0 -5 5 0 0. 9.
 15 1 1 2 0 0 1.6486 1.93733 3.67876 4.8127 1.7768 0. -1
 -15 1 1 2 0 0 -1.6486 -1.93733 -3.89001 4.97604 1.7768 0. 1
</event>
<event>
 4 80 1 -1 -1 -1
 11 -1 0 0 0 0 0 0 5 5 0 0. 9.
 -11 -1 0 0 0 0 0 0 -5 5 0 0. 9.
 15 1 1 2 0 0 2.84989 1.9345 3.15881 5 1.7768 0. -1
 -15 1 1 2 0 0 -2.84989 -1.9345 -3.15881 5 1.7768 0. 1
</event>
<event>
 4 80 1 -1 -1 -1
 11 -1 0 0 0 0 0 0 5 5 0 0. 9.
 -11 -1 0 0 0 0 0 0 -2.47641 2.47641 0 0. 9.
 15 1 1 2 0 0 -0.0903234 -1.60066 -1.47858 2.81321 1.7768 0. -1
 -15 1 1 2 0 0 0.0903234 1.60066 4.00217 4.66319 1.7768 0. 1
</event>
<event>
 4 80 1 -1 -1 -1
 11 -1 0 0 0 0 0 0 5 5 0 0. 9.
 -11 -1 0 0 0 0 0 0 -4.86857 4.86857 0 0. 9.
 15 1 1 2 0 0 -1.12253 0.210803 4.52488 4.99367 1.7768 0. 1
 -15 1 1 2 0 0 1.12253 -0.210803 -4.39345 4.8749 1.7768 0. -1
</event>
<event>
 4 80 1 -1 -1 -1
 11 -1 0 0 0 0 0 0 5 5 0 0. 9.
 -11 -1 0 0 0 0 0 0 -4.91805 4.91805 0 0. 9.
 15 1 1 2 0 0 -0.339955 2.87387 3.65466 4.98888 1.7768 0. -1
 -15 1 1 2 0 0 0.339955 -2.87387 -3.57271 4.92916 1.7768 0. 1
</event>
<event>
 4 80 1 -1 -1 -1
 11 -1 0 0 0 0 0 0 3.83939 3.83939 0 0. 9.
 -11 -1 0 0 0 0 0 0 -4.99969 4.99969 0 0. 9.
 15 1 1 2 0 0 -0.910375 3.87175 -0.108362 4.35761 1.7768 0. -1
 -15 1 1 2 0 0 0.910375 -3.87175 -1.05194 4.48147 1.7768 0. 1
</event>
<event>
 4 80 1 -1 -1 -1
 11 -1 0 0 0 0 0 0 5 5 0 0. 9.
 -11 -1 0 0 0 0 0 0 -5 5 0 0. 9.
 15 1 1 2 0 0 3.47005 1.86991 -2.51087 5 1.7768 0. 1
 -15 1 1 2 0 0 -3.47005 -1.86991 2.51087 5 1.7768 0. -1
</event>
<event>
 4 80 1 -1 -1 -1
 11 -1 0 0 0 0 0 0 4.99992 4.99992 0 0. 9.
 -11 -1 0 0 0 0 0 0 -5 5 0 0. 9.
 15 1 1 2 0 0 -2.08082 -0.21228 -4.17939 4.99999 1.7768 0. 1
 -15 1 1 2 0 0 2.08082 0.21228 4.17931 4.99992 1.7768 0. -1
</event>
<event>
 4 80 1 -1 -1 -1
 11 -1 0 0 0 0 0 0 4.96589 4.96589 0 0. 9.
 -11 -1 0 0 0 0 0 0 -5 5 0 0. 9.
 15 1 1 2 0 0 3.24787 -2.49993 -2.22465 4.9905 1.7768 0. 1
 -15 1 1 2 0 0 -3.24787 2.49993 2.19053 4.97539 1.7768 0. -1
</event>
<event>
 4 80 1 -1 -1 -1
 11 -1 0 0 0 0 0 0 4.99982 4.99982 0 0. 9.
 -11 -1 0 0 0 0 0 0 -4.97917 4.97917 0 0. 9.
 15 1 1 2 0 0 -4.38079 1.56125 -0.318809 4.98881 1.7768 0. 1
 -15 1 1 2 0 0 4.38079 -1.56125 0.339459 4.99017 1.7768 0. -1
</event>
<event>
 4 80 1 -1 -1 -1
 11 -1 0 0 0 0 0 0 4.99999 4.99999 0 0. 9.
 -11 -1 0 0 0 0 0 0 -4.9998 4.9998 0 0. 9.
 15 1 1 2 0 0 0.451935 -4.39637 1.51963 4.99993 1.7768 0. -1
 -15 1 1 2 0 0 -0.451935 4.39637 -1.51944 4.99987 1.7768 0. 1
</event>
<event>
 4 80 1 -1 -1 -1
 11 -1 0 0 0 0 0 0 5 5 0 0. 9.
 -11 -1 0 0 0 0 0 0 -5 5 0 0. 9.
 15 1 1 2 0 0 -3.94393 0.328871 -2.48587 5 1.7768 0. 1
 -15 1 1 2 0 0 3.94393 -0.328871 2.48587 5 1.7768 0. -1
</event>
<event>
 4 80 1 -1 -1 -1
 11 -1 0 0 0 0 0 0 5 5 0 0. 9.
 -11 -1 0 0 0 0 0 0 -4.96785 4.96785 0 0. 9.
 15 1 1 2 0 0 -4.56649 -0.102209 -0.888488 4.98101 1.7768 0. -1
 -15 1 1 2 0 0 4.56649 0.102209 0.920639 4.98684 1.7768 0. 1
</event>
<event>
 4 80 1 -1 -1 -1
 11 -1 0 0 0 0 0 0 4.99765 4.99765 0 0. 9.
 -11 -1 0 0 0 0 0 0 -4.58912 4.58912 0 0. 9.
 15 1 1 2 0 0 -1.44235 -4.17477 0.722409 4.81547 1.7768 0. -1
 -15 1 1 2 0 0 1.44235 4.17477 -0.313884 4.77131 1.7768 0. 1
</event>
<event>
 4 80 1 -1 -1 -1
 11 -1 0 0 0 0 0 0 5 5 0 0. 9.
 -11 -1 0 0 0 0 0 0 -5 5 0 0. 9.
 15 1 1 2 0 0 4.37636 -0.858691 1.39728 5 1.7768 0. 1
 -15 1 1 2 0 0 -4.37636 0.858691 -1.39728 5 1.7768 0. -1
</event>
<event>
 4 80 1 -1 -1 -1
 11 -1 0 0 0 0 0 0 4.30073 4.30073 0 0. 9.
 -11 -1 0 0 0 0 0 0 -5 5 0 0. 9.
 15 1 1 2 0 0 3.34034 -2.0929 -2.03006 4.77671 1.7768 0. 1
 -15 1 1 2 0 0 -3.34034 2.0929 1.33079 4.52402 1.7768 0. -1
</event>
<event>
 4 80 1 -1 -1 -1
 11 -1 0 0 0 0 0 0 5 5 0 0. 9.
 -11 -1 0 0 0 0 0 0 -4.13641 4.13641 0 0. 9.
 15 1 1 2 0 0 -2.55135 -0.159929 -2.89814 4.25346 1.7768 0. 1
 -15 1 1 2 0 0 2.55135 0.159929 3.76173 4.88296 1.7768 0. -1
</event>
<event>
 4 80 1 -1 -1 -1
 11 -1 0 0 0 0 0 0 3.94208 3.94208 0 0. 9.
 -11 -1 0 0 0 0 0 0 -4.99704 4.99704 0 0. 9.
 15 1 1 2 0 0 2.23992 1.7446 -3.46004 4.81565 1.7768 0. -1
 -15 1 1 2 0 0 -2.23992 -1.7446 2.40508 4.12347 1.7768 0. 1
</event>
<event>
 4 80 1 -1 -1 -1
 11 -1 0 0 0 0 0 0 5 5 0 0. 9.
 -11 -1 0 0 0 0 0 0 -4.99993 4.99993 0 0. 9.
 15 1 1 2 0 0 1.15752 -2.39947 -3.83984 4.99994 1.7768 0. 1
 -15 1 1 2 0 0 -1.15752 2.39947 3.83991 4.99999 1.7768 0. -1
</event>
<event>
 4 80 1 -1 -1 -1
 11 -1 0 0 0 0 0 0 5 5 0 0. 9.
 -11 -1 0 0 0 0 0 0 -5 5 0 0. 9.
 15 1 1 2 0 0 -1.145 2.0498 4.04099 5 1.7768 0. -1
 -15 1 1 2 0 0 1.145 -2.0498 -4.04099 5 1.7768 0. 1
</event>
<event>
 4 80 1 -1 -1 -1
 11 -1 0 0 0 0 0 0 3.20685 3.20685 0 0. 9.
 -11 -1 0 0 0 0 0 0 -5 5 0 0. 9.
 15 1 1 2 0 0 3.38828 -1.0235 -0.291619 3.97125 1.7768 0. -1
 -15 1 1 2 0 0 -3.38828 1.0235 -1.50153 4.2356 1.7768 0. 1
</event>
<event>
 4 80 1 -1 -1 -1
 11 -1 0 0 0 0 0 0 5 5 0 0. 9.
 -11 -1 0 0 0 0 0 0 -1.91045 1.91045 0 0. 9.
 15 1 1 2 0 0 -1.60547 1.9427 1.31317 3.35168 1.7768 0. 1
 -15 1 1 2 0 0 1.60547 -1.9427 1.77638 3.55877 1.7768 0. -1
</event>
<event>
 4 80 1 -1 -1 -1
 11 -1 0 0 0 0 0 0 3.03211 3.03211 0 0. 9.
 -11 -1 0 0 0 0 0 0 -4.99439 4.99439 0 0. 9.
 15 1 1 2 0 0 -2.90105 -0.94368 -2.66919 4.42593 1.7768 0. -1
 -15 1 1 2 0 0 2.90105 0.94368 0.706901 3.60056 1.7768 0. 1
</event>
<event>
 4 80 1 -1 -1 -1
 11 -1 0 0 0 0 0 0 3.73435 3.73435 0 0. 9.
 -11 -1 0 0 0 0 0 0 -5 5 0 0. 9.
 15 1 1 2 0 0 3.46628 1.78591 -0.0706024 4.28571 1.7768 0. 1
 -15 1 1 2 0 0 -3.46628 -1.78591 -1.19505 4.44864 1.7768 0. -1
</event>
<event>
 4 80 1 -1 -1 -1
 11 -1 0 0 0 0 0 0 5 5 0 0. 9.
 -11 -1 0 0 0 0 0 0 -4.99963 4.99963 0 0. 9.
 15 1 1 2 0 0 1.52579 4.18332 -1.41837 4.99977 1.7768 0. 1
 -15 1 1 2 0 0 -1.52579 -4.18332 1.41873 4.99987 1.7768 0. -1
</event>
<event>
 4 80 1 -1 -1 -1
 11 -1 0 0 0 0 0 0 5 5 0 0. 9.
 -11 -1 0 0 0 0 0 0 -5 5 0 0. 9.
 15 1 1 2 0 0 3.51433 0.303956 -3.06584 5 1.7768 0. -1
 -15 1 1 2 0 0 -3.51433 -0.303956 3.06584 5 1.7768 0. 1
</event>
<event>
 4 80 1 -1 -1 -1
 11 -1 0 0 0 0 0 0 4.96797 4.96797 0 0. 9.
 -11 -1 0 0 0 0 0 0 -5 5 0 0. 9.
 15 1 1 2 0 0 0.73661 1.64691 4.2767 4.97019 1.7768 0. -1
 -15 1 1 2 0 0 -0.73661 -1.64691 -4.30873 4.99778 1.7768 0. 1
</event>
<event>
 4 80 1 -1 -1 -1
 11 -1 0 0 0 0 0 0 4.99998 4.99998 0 0. 9.
 -11 -1 0 0 0 0 0 0 -5 5 0 0. 9.
 15 1 1 2 0 0 -2.85741 -3.13899 1.95552 4.99998 1.7768 0. -1
 -15 1 1 2 0 0 2.85741 3.13899 -1.95554 4.99999 1.7768 0. 1
</event>
<event>
 4 80 1 -1 -1 -1
 11 -1 0 0 0 0 0 0 4.98266 4.98266 0 0. 9.
 -11 -1 0 0 0 0 0 0 -4.24365 4.24365 0 0. 9.
 15 1 1 2 0 0 -1.72489 1.41345 -3.24959 4.32327 1.7768 0. -1
 -15 1 1 2 0 0 1.72489 -1.41345 3.9886 4.90304 1.7768 0. 1
</event>
<event>
 4 80 1 -1 -1 -1
 11 -1 0 0 0 0 0 0 4.6564 4.6564 0 0. 9.
 -11 -1 0 0 0 0 0 0 -5 5 0 0. 9.
 15 1 1 2 0 0 2.87668 -0.216445 -3.6094 4.95052 1.7768 0. 1
 -15 1 1 2 0 0 -2.87668 0.216445 3.2658 4.70588 1.7768 0. -1
</event>
<event>
 4 80 1 -1 -1 -1
 11 -1 0 0 0 0 0 0 2.91328 2.91328 0 0. 9.
 -11 -1 0 0 0 0 0 0 -4.90302 4.90302 0 0. 9.
 15 1 1 2 0 0 -1.22537 1.40353 -3.85584 4.63645 1.7768 0. 1
 -15 1 1 2 0 0 1.22537 -1.40353 1.86611 3.17986 1.7768 0. -1
</event>
<event>
 4 80 1 -1 -1 -1
 11 -1 0 0 0 0 0 0 5 5 0 0. 9.
 -11 -1 0 0 0 0 0 0 -4.99999 4.99999 0 0. 9.
 15 1 1 2 0 0 2.87298 -0.833138 3.59084 5 1.7768 0. 1
 -15 1 1 2 0 0 -2.87298 0.833138 -3.59083 4.99999 1.7768 0. -1
</event>
<event>
 4 80 1 -1 -1 -1
 11 -1 0 0 0 0 0 0 5 5 0 0. 9.
 -11 -1 0 0 0 0 0 0 -5 5 0 0. 9.
 15 1 1 2 0 0 3.48971 -0.854404 2.98901 5 1.7768 0. 1
 -15 1 1 2 0 0 -3.48971 0.854404 -2.98901 5 1.7768 0. -1
</event>
<event>
 4 80 1 -1 -1 -1
 11 -1 0 0 0 0 0 0 4.99985 4.99985 0 0. 9.
 -11 -1 0 0 0 0 0 0 -5 5 0 0. 9.
 15 1 1 2 0 0 -3.39876 -0.783769 3.11049 4.99988 1.7768 0. -1
 -15 1 1 2 0 0 3.39876 0.783769 -3.11064 4.99997 1.7768 0. 1
</event>
<event>
 4 80 1 -1 -1 -1
 11 -1 0 0 0 0 0 0 4.97297 4.97297 0 0. 9.
 -11 -1 0 0 0 0 0 0 -5 5 0 0. 9.
 15 1 1 2 0 0 2.25572 -3.06138 2.6785 4.97919 1.7768 0. -1
 -15 1 1 2 0 0 -2.25572 3.06138 -2.70552 4.99378 1.7768 0. 1
</event>
<event>
 4 80 1 -1 -1 -1
 11 -1 0 0 0 0 0 0 5 5 0 0. 9.
 -11 -1 0 0 0 0 0 0 -5 5 0 0. 9.
 15 1 1 2 0 0 1.95233 2.53096 3.40954 5 1.7768 0. 1
 -15 1 1 2 0 0 -1.95233 -2.53096 -3.40954 5 1.7768 0. -1
</event>
<event>
 4 80 1 -1 -1 -1
 11 -1 0 0 0 0 0 0 5 5 0 0. 9.
 -11 -1 0 0 0 0 0 0 -4.96781 4.96781 0 0. 9.
 15 1 1 2 0 0 1.03259 -3.04299 -3.35369 4.97302 1.7768 0. 1
 -15 1 1 2 0 0 -1.03259 3.04299 3.38588 4.99479 1.7768 0. -1
</event>
<event>
 4 80 1 -1 -1 -1
 11 -1 0 0 0 0 0 0 4.81625 4.81625 0 0. 9.
 -11 -1 0 0 0 0 0 0 -4.99862 4.99862 0 0. 9.
 15 1 1 2 0 0 -0.981081 3.98505 1.92752 4.86993 1.7768 0. 1
 -15 1 1 2 0 0 0.981081 -3.98505 -2.10989 4.94495 1.7768 0. -1
</event>
<event>
 4 80 1 -1 -1 -1
 11 -1 0 0 0 0 0 0 5 5 0 0. 9.
 -11 -1 0 0 0 0 0 0 -4.99025 4.99025 0 0. 9.
 15 1 1 2 0 0 2.09607 -1.06663 -4.02778 4.99119 1.7768 0. -1
 -15 1 1 2 0 0 -2.09607 1.06663 4.03753 4.99906 1.7768 0. 1
</event>
<event>
 4 80 1 -1 -1 -1
 11 -1 0 0 0 0 0 0 5 5 0 0. 9.
 -11 -1 0 0 0 0 0 0 -3.95278 3.95278 0 0. 9.
 15 1 1 2 0 0 -1.4028 3.36595 2.35517 4.69063 1.7768 0. -1
 -15 1 1 2 0 0 1.4028 -3.36595 -1.30794 4.26215 1.7768 0. 1
</event>
<event>
 4 80 1 -1 -1 -1
 11 -1 0 0 0 0 0 0 3.74316 3.74316 0 0. 9.
 -11 -1 0 0 0 0 0 0 -4.92425 4.92425 0 0. 9.
 15 1 1 2 0 0 -2.3729 -2.66221 1.02343 4.11377 1.7768 0. 1
 -15 1 1 2 0 0 2.3729 2.66221 -2.20452 4.55364 1.7768 0. -1
</event>
<event>
 4 80 1 -1 -1 -1
 11 -1 0 0 0 0 0 0 5 5 0 0. 9.
 -11 -1 0 0 0 0 0 0 -5 5 0 0. 9.
 15 1 1 2 0 0 -1.15388 -2.32809 3.88469 5 1.7768 0. -1
 -15 1 1 2 0 0 1.15388 2.32809 -3.88469 5 1.7768 0. 1
</event>
<event>
 4 80 1 -1 -1 -1
 11 -1 0 0 0 0 0 0 4.99875 4.99875 0 0. 9.
 -11 -1 0 0 0 0 0 0 -3.90444 3.90444 0 0. 9.
 15 1 1 2 0 0 -3.26197 -0.700278 2.85127 4.7348 1.7768 0. 1
 -15 1 1 2 0 0 3.26197 0.700278 -1.75697 4.16839 1.7768 0. -1
</event>
<event>
 4 80 1 -1 -1 -1
 11 -1 0 0 0 0 0 0 5 5 0 0. 9.
 -11 -1 0 0 0 0 0 0 -4.98014 4.98014 0 0. 9.
 15 1 1 2 0 0 3.40466 -3.13398 -0.564081 4.98893 1.7768 0. 1
 -15 1 1 2 0 0 -3.40466 3.13398 0.583938 4.99121 1.7768 0. -1
</event>
<event>
 4 80 1 -1 -1 -1
 11 -1 0 0 0 0 0 0 5 5 0 0. 9.
 -11 -1 0 0 0 0 0 0 -5 5 0 0. 9.
 15 1 1 2 0 0 -0.536118 -2.33095 4.01516 5 1.7768 0. -1
 -15 1 1 2 0 0 0.536118 2.33095 -4.01516 5 1.7768 0. 1
</event>
<event>
 4 80 1 -1 -1 -1
 11 -1 0 0 0 0 0 0 5 5 0 0. 9.
 -11 -1 0 0 0 0 0 0 -5 5 0 0. 9.
 15 1 1 2 0 0 -1.76702 -4.05275 1.51496 5 1.7768 0. -1
 -15 1 1 2 0 0 1.76702 4.05275 -1.51496 5 1.7768 0. 1
</event>
<event>
 4 80 1 -1 -1 -1
 11 -1 0 0 0 0 0 0 4.88166 4.88166 0 0. 9.
 -11 -1 0 0 0 0 0 0 -5 5 0 0. 9.
 15 1 1 2 0 0 -1.00898 -1.80174 -4.18091 4.99019 1.7768 0. 1
 -15 1 1 2 0 0 1.00898 1.80174 4.06256 4.89147 1.7768 0. -1
</event>
<event>
 4 80 1 -1 -1 -1
 11 -1 0 0 0 0 0 0 5 5 0 0. 9.
 -11 -1 0 0 0 0 0 0 -5 5 0 0. 9.
 15 1 1 2 0 0 1.78104 3.94416 -1.76458 5 1.7768 0. 1
 -15 1 1 2 0 0 -1.78104 -3.94416 1.76458 5 1.7768 0. -1
</event>
<event>
 4 80 1 -1 -1 -1
 11 -1 0 0 0 0 0 0 4.99993 4.99993 0 0. 9.
 -11 -1 0 0 0 0 0 0 -4.91057 4.91057 0 0. 9.
 15 1 1 2 0 0 -2.64525 -1.80534 3.38221 4.98534 1.7768 0. -1
 -15 1 1 2 0 0 2.64525 1.80534 -3.29285 4.92515 1.7768 0. 1
</event>
<event>
 4 80 1 -1 -1 -1
 11 -1 0 0 0 0 0 0 5 5 0 0. 9.
 -11 -1 0 0 0 0 0 0 -4.99586 4.99586 0 0. 9.
 15 1 1 2 0 0 -1.57089 2.45299 -3.64988 4.99642 1.7768 0. 1
 -15 1 1 2 0 0 1.57089 -2.45299 3.65402 4.99944 1.7768 0. -1
</event>
<event>
 4 80 1 -1 -1 -1
 11 -1 0 0 0 0 0 0 5 5 0 0. 9.
 -11 -1 0 0 0 0 0 0 -4.98787 4.98787 0 0. 9.
 15 1 1 2 0 0 0.514744 -4.58768 -0.679427 4.9931 1.7768 0. -1
 -15 1 1 2 0 0 -0.514744 4.58768 0.691551 4.99477 1.7768 0. 1
</event>
<event>
 4 80 1 -1 -1 -1
 11 -1 0 0 0 0 0 0 4.99298 4.99298 0 0. 9.
 -11 -1 0 0 0 0 0 0 -5 5 0 0. 9.
 15 1 1 2 0 0 3.89571 -2.4138 0.89325 4.99586 1.7768 0. -1
 -15 1 1 2 0 0 -3.89571 2.4138 -0.900273 4.99712 1.7768 0. 1
</event>
<event>
 4 80 1 -1 -1 -1
 11 -1 0 0 0 0 0 0 5 5 0 0. 9.
 -11 -1 0 0 0 0 0 0 -4.98239 4.98239 0 0. 9.
 15 1 1 2 0 0 4.25732 -1.53305 -1.12221 4.9892 1.7768 0. 1
 -15 1 1 2 0 0 -4.25732 1.53305 1.13982 4.99319 1.7768 0. -1
</event>
<event>
 4 80 1 -1 -1 -1
 11 -1 0 0 0 0 0 0 4.9974 4.9974 0 0. 9.
 -11 -1 0 0 0 0 0 0 -5 5 0 0. 9.
 15 1 1 2 0 0 -1.02755 3.3639 3.07401 4.9979 1.7768 0. 1
 -15 1 1 2 0 0 1.02755 -3.3639 -3.07661 4.9995 1.7768 0. -1
</event>
<event>
 4 80 1 -1 -1 -1
 11 -1 0 0 0 0 0 0 4.9952 4.9952 0 0. 9.
 -11 -1 0 0 0 0 0 0 -4.99969 4.99969 0 0. 9.
 15 1 1 2 0 0 -1.49309 -3.66211 -2.48748 4.99857 1.7768 0. 1
 -15 1 1 2 0 0 1.49309 3.66211 2.48299 4.99633 1.7768 0. -1
</event>
<event>
 4 80 1 -1 -1 -1
 11 -1 0 0 0 0 0 0 5 5 0 0. 9.
 -11 -1 0 0 0 0 0 0 -5 5 0 0. 9.
 15 1 1 2 0 0 -0.331754 1.92584 4.24539 5 1.7768 0. 1
 -15 1 1 2 0 0 0.331754 -1.92584 -4.24539 5 1.7768 0. -1
</event>
<event>
 4 80 1 -1 -1 -1
 11 -1 0 0 0 0 0 0 5 5 0 0. 9.
 -11 -1 0 0 0 0 0 0 -4.97422 4.97422 0 0. 9.
 15 1 1 2 0 0 -3.8183 -0.662517 -2.57459 4.98042 1.7768 0. 1
 -15 1 1 2 0 0 3.8183 0.662517 2.60037 4.9938 1.7768 0. -1
</event>
<event>
 4 80 1 -1 -1 -1
 11 -1 0 0 0 0 0 0 5 5 0 0. 9.
 -11 -1 0 0 0 0 0 0 -4.99998 4.99998 0 0. 9.
 15 1 1 2 0 0 3.88497 2.17816 1.41591 4.99999 1.7768 0. 1
 -15 1 1 2 0 0 -3.88497 -2.17816 -1.4159 4.99999 1.7768 0. -1
</event>
<event>
 4 80 1 -1 -1 -1
 11 -1 0 0 0 0 0 0 5 5 0 0. 9.
 -11 -1 0 0 0 0 0 0 -5 5 0 0. 9.
 15 1 1 2 0 0 1.46106 -4.38929 -0.664605 5 1.7768 0. 1
 -15 1 1 2 0 0 -1.46106 4.38929 0.664605 5 1.7768 0. -1
</event>
<event>
 4 80 1 -1 -1 -1
 11 -1 0 0 0 0 0 0 5 5 0 0. 9.
 -11 -1 0 0 0 0 0 0 -5 5 0 0. 9.
 15 1 1 2 0 0 -0.174232 3.00127 3.57831 5 1.7768 0. 1
 -15 1 1 2 0 0 0.174232 -3.00127 -3.57831 5 1.7768 0. -1
</event>
<event>
 4 80 1 -1 -1 -1
 11 -1 0 0 0 0 0 0 4.99158 4.99158 0 0. 9.
 -11 -1 0 0 0 0 0 0 -0.633932 0.633932 0 0. 9.
 15 1 1 2 0 0 0.0141999 -0.0135986 2.30339 2.90925 1.7768 0. 1
 -15 1 1 2 0 0 -0.0141999 0.0135986 2.05425 2.71626 1.7768 0. -1
</event>
<event>
 4 80 1 -1 -1 -1
 11 -1 0 0 0 0 0 0 5 5 0 0. 9.
 -11 -1 0 0 0 0 0 0 -4.99999 4.99999 0 0. 9.
 15 1 1 2 0 0 -2.37225 -3.20824 2.43349 5 1.7768 0. -1
 -15 1 1 2 0 0 2.37225 3.20824 -2.43348 4.99999 1.7768 0. 1
</event>
<event>
 4 80 1 -1 -1 -1
 11 -1 0 0 0 0 0 0 4.99015 4.99015 0 0. 9.
 -11 -1 0 0 0 0 0 0 -5 5 0 0. 9.
 15 1 1 2 0 0 -3.4892 1.32867 -2.80727 4.99784 1.7768 0. 1
 -15 1 1 2 0 0 3.4892 -1.32867 2.79742 4.99232 1.7768 0. -1
</event>
<event>
 4 80 1 -1 -1 -1
 11 -1 0 0 0 0 0 0 5 5 0 0. 9.
 -11 -1 0 0 0 0 0 0 -5 5 0 0. 9.
 15 1 1 2 0 0 0.369714 -2.4218 -3.98001 5 1.7768 0. -1
 -15 1 1 2 0 0 -0.369714 2.4218 3.98001 5 1.7768 0. 1
</event>
<event>
 4 80 1 -1 -1 -1
 11 -1 0 0 0 0 0 0 4.99995 4.99995 0 0. 9.
 -11 -1 0 0 0 0 0 0 -4.70724 4.70724 0 0. 9.
 15 1 1 2 0 0 -0.338921 -3.44391 -2.75373 4.76615 1.7768 0. -1
 -15 1 1 2 0 0 0.338921 3.44391 3.04643 4.94104 1.7768 0. 1
</event>
<event>
 4 80 1 -1 -1 -1
 11 -1 0 0 0 0 0 0 5 5 0 0. 9.
 -11 -1 0 0 0 0 0 0 -5 5 0 0. 9.
 15 1 1 2 0 0 2.05197 -4.05753 -1.08082 5 1.7768 0. -1
 -15 1 1 2 0 0 -2.05197 4.05753 1.08082 5 1.7768 0. 1
</event>
<event>
 4 80 1 -1 -1 -1
 11 -1 0 0 0 0 0 0 4.99913 4.99913 0 0. 9.
 -11 -1 0 0 0 0 0 0 -5 5 0 0. 9.
 15 1 1 2 0 0 -4.62762 -0.602526 0.244659 4.99955 1.7768 0. -1
 -15 1 1 2 0 0 4.62762 0.602526 -0.245526 4.99959 1.7768 0. 1
</event>
<event>
 4 80 1 -1 -1 -1
 11 -1 0 0 0 0 0 0 4.21235 4.21235 0 0. 9.
 -11 -1 0 0 0 0 0 0 -5 5 0 0. 9.
 15 1 1 2 0 0 1.27366 1.47011 -4.16537 4.92864 1.7768 0. -1
 -15 1 1 2 0 0 -1.27366 -1.47011 3.37772 4.28371 1.7768 0. 1
</event>
<event>
 4 80 1 -1 -1 -1
 11 -1 0 0 0 0 0 0 5 5 0 0. 9.
 -11 -1 0 0 0 0 0 0 -5 5 0 0. 9.
 15 1 1 2 0 0 -0.0378536 -2.34284 -4.04375 5 1.7768 0. 1
 -15 1 1 2 0 0 0.0378536 2.34284 4.04375 5 1.7768 0. -1
</event>
<event>
 4 80 1 -1 -1 -1
 11 -1 0 0 0 0 0 0 4.999 4.999 0 0. 9.
 -11 -1 0 0 0 0 0 0 -5 5 0 0. 9.
 15 1 1 2 0 0 4.51399 -0.547213 -1.07835 4.99961 1.7768 0. -1
 -15 1 1 2 0 0 -4.51399 0.547213 1.07736 4.99939 1.7768 0. 1
</event>
<event>
 4 80 1 -1 -1 -1
 11 -1 0 0 0 0 0 0 5 5 0 0. 9.
 -11 -1 0 0 0 0 0 0 -5 5 0 0. 9.
 15 1 1 2 0 0 2.6055 1.49396 3.58074 5 1.7768 0. -1
 -15 1 1 2 0 0 -2.6055 -1.49396 -3.58074 5 1.7768 0. 1
</event>
<event>
 4 80 1 -1 -1 -1
 11 -1 0 0 0 0 0 0 5 5 0 0. 9.
 -11 -1 0 0 0 0 0 0 -4.99932 4.99932 0 0. 9.
 15 1 1 2 0 0 4.30644 0.334944 -1.78326 4.99954 1.7768 0. 1
 -15 1 1 2 0 0 -4.30644 -0.334944 1.78394 4.99978 1.7768 0. -1
</event>
<event>
 4 80 1 -1 -1 -1
 11 -1 0 0 0 0 0 0 5 5 0 0. 9.
 -11 -1 0 0 0 0 0 0 -4.99995 4.99995 0 0. 9.
 15 1 1 2 0 0 -2.02625 3.92506 1.52653 4.99998 1.7768 0. 1
 -15 1 1 2 0 0 2.02625 -3.92506 -1.52649 4.99997 1.7768 0. -1
</event>
<event>
 4 80 1 -1 -1 -1
 11 -1 0 0 0 0 0 0 4.99994 4.99994 0 0. 9.
 -11 -1 0 0 0 0 0 0 -5 5 0 0. 9.
 15 1 1 2 0 0 -2.81774 -3.5351 1.18544 4.99996 1.7768 0. -1
 -15 1 1 2 0 0 2.81774 3.5351 -1.1855 4.99998 1.7768 0. 1
</event>
<event>
 4 80 1 -1 -1 -1
 11 -1 0 0 0 0 0 0 5 5 0 0. 9.
 -11 -1 0 0 0 0 0 0 -4.99998 4.99998 0 0. 9.
 15 1 1 2 0 0 -3.09303 -0.6291 -3.44666 4.99998 1.7768 0. 1
 -15 1 1 2 0 0 3.09303 0.6291 3.44669 5 1.7768 0. -1
</event>
<event>
 4 80 1 -1 -1 -1
 11 -1 0 0 0 0 0 0 5 5 0 0. 9.
 -11 -1 0 0 0 0 0 0 -5 5 0 0. 9.
 15 1 1 2 0 0 2.09475 2.25431 -3.51744 5 1.7768 0. 1
 -15 1 1 2 0 0 -2.09475 -2.25431 3.51744 5 1.7768 0. -1
</event>
<event>
 4 80 1 -1 -1 -1
 11 -1 0 0 0 0 0 0 5 5 0 0. 9.
 -11 -1 0 0 0 0 0 0 -4.99991 4.99991 0 0. 9.
 15 1 1 2 0 0 -0.801462 -4.11769 2.06017 4.99997 1.7768 0. -1
 -15 1 1 2 0 0 0.801462 4.11769 -2.06007 4.99993 1.7768 0. 1
</event>
<event>
 4 80 1 -1 -1 -1
 11 -1 0 0 0 0 0 0 3.67589 3.67589 0 0. 9.
 -11 -1 0 0 0 0 0 0 -5 5 0 0. 9.
 15 1 1 2 0 0 -0.392294 3.84013 -1.23553 4.42547 1.7768 0. -1
 -15 1 1 2 0 0 0.392294 -3.84013 -0.0885752 4.25042 1.7768 0. 1
</event>
<event>
 4 80 1 -1 -1 -1
 11 -1 0 0 0 0 0 0 4.84628 4.84628 0 0. 9.
 -11 -1 0 0 0 0 0 0 -4.52932 4.52932 0 0. 9.
 15 1 1 2 0 0 -0.622684 -0.851113 -4.04875 4.54557 1.7768 0. -1
 -15 1 1 2 0 0 0.622684 0.851113 4.3657 4.83003 1.7768 0. 1
</event>
<event>
 4 80 1 -1 -1 -1
 11 -1 0 0 0 0 0 0 4.80338 4.80338 0 0. 9.
 -11 -1 0 0 0 0 0 0 -4.78615 4.78615 0 0. 9.
 15 1 1 2 0 0 3.26554 -1.0258 -2.84024 4.78965 1.7768 0. -1
 -15 1 1 2 0 0 -3.26554 1.0258 2.85747 4.79988 1.7768 0. 1
</event>
<event>
 4 80 1 -1 -1 -1
 11 -1 0 0 0 0 0 0 5 5 0 0. 9.
 -11 -1 0 0 0 0 0 0 -5 5 0 0. 9.
 15 1 1 2 0 0 -1.24121 3.82424 2.38262 5 1.7768 0. -1
 -15 1 1 2 0 0 1.24121 -3.82424 -2.38262 5 1.7768 0. 1
</event>
<event>
 4 80 1 -1 -1 -1
 11 -1 0 0 0 0 0 0 4.93552 4.93552 0 0. 9.
 -11 -1 0 0 0 0 0 0 -0.995623 0.995623 0 0. 9.
 15 1 1 2 0 0 -0.787281 -0.787267 2.93148 3.60429 1.7768 0. -1
 -15 1 1 2 0 0 0.787281 0.787267 1.00841 2.32685 1.7768 0. 1
</event>
<event>
 4 80 1 -1 -1 -1
 11 -1 0 0 0 0 0 0 4.99891 4.99891 0 0. 9.
 -11 -1 0 0 0 0 0 0 -4.99939 4.99939 0 0. 9.
 15 1 1 2 0 0 3.15191 -2.90333 1.86254 4.99906 1.7768 0. 1
 -15 1 1 2 0 0 -3.15191 2.90333 -1.86303 4.99924 1.7768 0. -1
</event>
<event>
 4 80 1 -1 -1 -1
 11 -1 0 0 0 0 0 0 5 5 0 0. 9.
 -11 -1 0 0 0 0 0 0 -5 5 0 0. 9.
 15 1 1 2 0 0 2.93679 2.76232 -2.36371 5 1.7768 0. 1
 -15 1 1 2 0 0 -2.93679 -2.76232 2.36371 5 1.7768 0. -1
</event>
<event>
 4 80 1 -1 -1 -1
 11 -1 0 0 0 0 0 0 5 5 0 0. 9.
 -11 -1 0 0 0 0 0 0 -5 5 0 0. 9.
 15 1 1 2 0 0 4.18652 0.510813 -2.01355 5 1.7768 0. -1
 -15 1 1 2 0 0 -4.18652 -0.510813 2.01355 5 1.7768 0. 1
</event>
<event>
 4 80 1 -1 -1 -1
 11 -1 0 0 0 0 0 0 4.99997 4.99997 0 0. 9.
 -11 -1 0 0 0 0 0 0 -4.99962 4.99962 0 0. 9.
 15 1 1 2 0 0 3.21037 3.38978 -0.207531 4.99979 1.7768 0. 1
 -15 1 1 2 0 0 -3.21037 -3.38978 0.207887 4.9998 1.7768 0. -1
</event>
<event>
 4 80 1 -1 -1 -1
 11 -1 0 0 0 0 0 0 5 5 0 0. 9.
 -11 -1 0 0 0 0 0 0 -5 5 0 0. 9.
 15 1 1 2 0 0 0.352038 -0.0851932 -4.65952 5 1.7768 0. 1
 -15 1 1 2 0 0 -0.352038 0.0851932 4.65951 5 1.7768 0. -1
</event>
<event>
 4 80 1 -1 -1 -1
 11 -1 0 0 0 0 0 0 0.762458 0.762458 0 0. 9.
 -11 -1 0 0 0 0 0 0 -4.96271 4.96271 0 0. 9.
 15 1 1 2 0 0 0.24296 0.396953 -1.15838 2.17168 1.7768 0. 1
 -15 1 1 2 0 0 -0.24296 -0.396953 -3.04187 3.55349 1.7768 0. -1
</event>
<event>
 4 80 1 -1 -1 -1
 11 -1 0 0 0 0 0 0 4.16007 4.16007 0 0. 9.
 -11 -1 0 0 0 0 0 0 -1.11425 1.11425 0 0. 9.
 15 1 1 2 0 0 0.01621 -0.703511 2.73699 3.33827 1.7768 0. -1
 -15 1 1 2 0 0 -0.01621 0.703511 0.308835 1.93605 1.7768 0. 1
</event>
<event>
 4 80 1 -1 -1 -1
 11 -1 0 0 0 0 0 0 5 5 0 0. 9.
 -11 -1 0 0 0 0 0 0 -5 5 0 0. 9.
 15 1 1 2 0 0 4.62514 0.666626 0.0772477 5 1.7768 0. 1
 -15 1 1 2 0 0 -4.62514 -0.666626 -0.0772479 5 1.7768 0. -1
</event>
<event>
 4 80 1 -1 -1 -1
 11 -1 0 0 0 0 0 0 2.0054 2.0054 0 0. 9.
 -11 -1 0 0 0 0 0 0 -4.66544 4.66544 0 0. 9.
 15 1 1 2 0 0 0.801277 -0.216666 -3.88952 4.35604 1.7768 0. 1
 -15 1 1 2 0 0 -0.801277 0.216666 1.22948 2.31481 1.7768 0. -1
</event>
<event>
 4 80 1 -1 -1 -1
 11 -1 0 0 0 0 0 0 4.99999 4.99999 0 0. 9.
 -11 -1 0 0 0 0 0 0 -5 5 0 0. 9.
 15 1 1 2 0 0 1.78351 2.69907 -3.37288 4.99999 1.7768 0. 1
 -15 1 1 2 0 0 -1.78351 -2.69907 3.37288 4.99999 1.7768 0. -1
</event>
<event>
 4 80 1 -1 -1 -1
 11 -1 0 0 0 0 0 0 4.99935 4.99935 0 0. 9.
 -11 -1 0 0 0 0 0 0 -5 5 0 0. 9.
 15 1 1 2 0 0 -2.09999 3.4798 2.30619 4.99952 1.7768 0. 1
 -15 1 1 2 0 0 2.09999 -3.4798 -2.30684 4.99982 1.7768 0. -1
</event>
<event>
 4 80 1 -1 -1 -1
 11 -1 0 0 0 0 0 0 1.67518 1.67518 0 0. 9.
 -11 -1 0 0 0 0 0 0 -4.99999 4.99999 0 0. 9.
 15 1 1 2 0 0 -0.794042 -1.99873 -0.774535 2.89535 1.7768 0. 1
 -15 1 1 2 0 0 0.794042 1.99873 -2.55027 3.77982 1.7768 0. -1
</event>
<event>
 4 80 1 -1 -1 -1
 11 -1 0 0 0 0 0 0 5 5 0 0. 9.
 -11 -1 0 0 0 0 0 0 -5 5 0 0. 9.
 15 1 1 2 0 0 -2.50272 0.231386 -3.94019 5 1.7768 0. 1
 -15 1 1 2 0 0 2.50272 -0.231386 3.94019 5 1.7768 0. -1
</event>
<event>
 4 80 1 -1 -1 -1
 11 -1 0 0 0 0 0 0 5 5 0 0. 9.
 -11 -1 0 0 0 0 0 0 -4.99282 4.99282 0 0. 9.
 15 1 1 2 0 0 -4.20826 -1.38943 1.47544 4.99747 1.7768 0. 1
 -15 1 1 2 0 0 4.20826 1.38943 -1.46827 4.99535 1.7768 0. -1
</event>
<event>
 4 80 1 -1 -1 -1
 11 -1 0 0 0 0 0 0 5 5 0 0. 9.
 -11 -1 0 0 0 0 0 0 -4.31315 4.31315 0 0. 9.
 15 1 1 2 0 0 -0.0689868 -4.28948 0.283353 4.65214 1.7768 0. -1
 -15 1 1 2 0 0 0.0689868 4.28948 0.403498 4.66101 1.7768 0. 1
</event>
<event>
 4 80 1 -1 -1 -1
 11 -1 0 0 0 0 0 0 4.85122 4.85122 0 0. 9.
 -11 -1 0 0 0 0 0 0 -4.99843 4.99843 0 0. 9.
 15 1 1 2 0 0 1.7954 0.185925 4.14975 4.86171 1.7768 0. 1
 -15 1 1 2 0 0 -1.7954 -0.185925 -4.29696 4.98795 1.7768 0. -1
</event>
<event>
 4 80 1 -1 -1 -1
 11 -1 0 0 0 0 0 0 4.99566 4.99566 0 0. 9.
 -11 -1 0 0 0 0 0 0 -4.8655 4.8655 0 0. 9.
 15 1 1 2 0 0 0.430973 4.26709 -1.59484 4.90867 1.7768 0. 1
 -15 1 1 2 0 0 -0.430973 -4.26709 1.72499 4.95249 1.7768 0. -1
</event>
<event>
 4 80 1 -1 -1 -1
 11 -1 0 0 0 0 0 0 5 5 0 0. 9.
 -11 -1 0 0 0 0 0 0 -4.82535 4.82535 0 0. 9.
 15 1 1 2 0 0 3.47094 2.35833 1.92061 4.94526 1.7768 0. 1
 -15 1 1 2 0 0 -3.47094 -2.35833 -1.74596 4.88009 1.7768 0. -1
</event>
<event>
 4 80 1 -1 -1 -1
 11 -1 0 0 0 0 0 0 5 5 0 0. 9.
 -11 -1 0 0 0 0 0 0 -5 5 0 0. 9.
 15 1 1 2 0 0 -1.8493 -4.28827 0.181941 5 1.7768 0. -1
 -15 1 1 2 0 0 1.8493 4.28827 -0.181937 5 1.7768 0. 1
</event>
<event>
 4 80 1 -1 -1 -1
 11 -1 0 0 0 0 0 0 5 5 0 0. 9.
 -11 -1 0 0 0 0 0 0 -5 5 0 0. 9.
 15 1 1 2 0 0 3.4743 -1.5214 -2.73072 5 1.7768 0. -1
 -15 1 1 2 0 0 -3.4743 1.5214 2.73072 5 1.7768 0. 1
</event>
<event>
 4 80 1 -1 -1 -1
 11 -1 0 0 0 0 0 0 5 5 0 0. 9.
 -11 -1 0 0 0 0 0 0 -4.94103 4.94103 0 0. 9.
 15 1 1 2 0 0 1.42297 -4.0252 -1.79272 4.9597 1.7768 0. 1
 -15 1 1 2 0 0 -1.42297 4.0252 1.8517 4.98132 1.7768 0. -1
</event>
<event>
 4 80 1 -1 -1 -1
 11 -1 0 0 0 0 0 0 5 5 0 0. 9.
 -11 -1 0 0 0 0 0 0 -5 5 0 0. 9.
 15 1 1 2 0 0 -4.28355 1.86864 -0.040223 5 1.7768 0. 1
 -15 1 1 2 0 0 4.28355 -1.86864 0.040223 5 1.7768 0. -1
</event>
<event>
 4 80 1 -1 -1 -1
 11 -1 0 0 0 0 0 0 5 5 0 0. 9.
 -11 -1 0 0 0 0 0 0 -5 5 0 0. 9.
 15 1 1 2 0 0 4.06545 -2.02319 1.10502 5 1.7768 0. -1
 -15 1 1 2 0 0 -4.06545 2.02319 -1.10502 5 1.7768 0. 1
</event>
<event>
 4 80 1 -1 -1 -1
 11 -1 0 0 0 0 0 0 5 5 0 0. 9.
 -11 -1 0 0 0 0 0 0 -5 5 0 0. 9.
 15 1 1 2 0 0 4.29762 -1.30421 1.29298 5 1.7768 0. 1
 -15 1 1 2 0 0 -4.29762 1.30421 -1.29298 5 1.7768 0. -1
</event>
<event>
 4 80 1 -1 -1 -1
 11 -1 0 0 0 0 0 0 5 5 0 0. 9.
 -11 -1 0 0 0 0 0 0 -4.99192 4.99192 0 0. 9.
 15 1 1 2 0 0 -2.30032 -2.49738 -3.20118 4.99337 1.7768 0. 1
 -15 1 1 2 0 0 2.30032 2.49738 3.20926 4.99855 1.7768 0. -1
</event>
<event>
 4 80 1 -1 -1 -1
 11 -1 0 0 0 0 0 0 5 5 0 0. 9.
 -11 -1 0 0 0 0 0 0 -5 5 0 0. 9.
 15 1 1 2 0 0 3.18212 -2.73798 -2.05422 5 1.7768 0. -1
 -15 1 1 2 0 0 -3.18212 2.73798 2.05422 5 1.7768 0. 1
</event>
<event>
 4 80 1 -1 -1 -1
 11 -1 0 0 0 0 0 0 2.64136 2.64136 0 0. 9.
 -11 -1 0 0 0 0 0 0 -5 5 0 0. 9.
 15 1 1 2 0 0 -2.5524 -1.76814 -0.50782 3.61341 1.7768 0. -1
 -15 1 1 2 0 0 2.5524 1.76814 -1.85082 4.02795 1.7768 0. 1
</event>
<event>
 4 80 1 -1 -1 -1
 11 -1 0 0 0 0 0 0 5 5 0 0. 9.
 -11 -1 0 0 0 0 0 0 -4.97742 4.97742 0 0. 9.
 15 1 1 2 0 0 -3.22981 -1.76333 2.87283 4.99519 1.7768 0. 1
 -15 1 1 2 0 0 3.22981 1.76333 -2.85024 4.98223 1.7768 0. -1
</event>
<event>
 4 80 1 -1 -1 -1
 11 -1 0 0 0 0 0 0 4.99925 4.99925 0 0. 9.
 -11 -1 0 0 0 0 0 0 -4.99983 4.99983 0 0. 9.
 15 1 1 2 0 0 1.40121 -2.51423 3.68114 4.99932 1.7768 0. -1
 -15 1 1 2 0 0 -1.40121 2.51423 -3.68172 4.99975 1.7768 0. 1
</event>
<event>
 4 80 1 -1 -1 -1
 11 -1 0 0 0 0 0 0 5 5 0 0. 9.
 -11 -1 0 0 0 0 0 0 -5 5 0 0. 9.
 15 1 1 2 0 0 -0.340246 2.46005 3.95912 5 1.7768 0. 1
 -15 1 1 2 0 0 0.340246 -2.46005 -3.95912 5 1.7768 0. -1
</event>
<event>
 4 80 1 -1 -1 -1
 11 -1 0 0 0 0 0 0 4.9789 4.9789 0 0. 9.
 -11 -1 0 0 0 0 0 0 -3.6368 3.6368 0 0. 9.
 15 1 1 2 0 0 0.971707 2.15437 3.76894 4.79042 1.7768 0. -1
 -15 1 1 2 0 0 -0.971707 -2.15437 -2.42684 3.82528 1.7768 0. 1
</event>
<event>
 4 80 1 -1 -1 -1
 11 -1 0 0 0 0 0 0 4.99762 4.99762 0 0. 9.
 -11 -1 0 0 0 0 0 0 -4.99999 4.99999 0 0. 9.
 15 1 1 2 0 0 0.551368 -1.33537 -4.4445 4.99986 1.7768 0. 1
 -15 1 1 2 0 0 -0.551368 1.33537 4.44214 4.99775 1.7768 0. -1
</event>
<event>
 4 80 1 -1 -1 -1
 11 -1 0 0 0 0 0 0 4.97732 4.97732 0 0. 9.
 -11 -1 0 0 0 0 0 0 -4.99995 4.99995 0 0. 9.
 15 1 1 2 0 0 -1.91802 1.11846 4.08734 4.97934 1.7768 0. 1
 -15 1 1 2 0 0 1.91802 -1.11846 -4.10997 4.99793 1.7768 0. -1
</event>
<event>
 4 80 1 -1 -1 -1
 11 -1 0 0 0 0 0 0 5 5 0 0. 9.
 -11 -1 0 0 0 0 0 0 -5 5 0 0. 9.
 15 1 1 2 0 0 -2.50897 -3.62546 1.55027 5 1.7768 0. -1
 -15 1 1 2 0 0 2.50897 3.62546 -1.55027 5 1.7768 0. 1
</event>
<event>
 4 80 1 -1 -1 -1
 11 -1 0 0 0 0 0 0 5 5 0 0. 9.
 -11 -1 0 0 0 0 0 0 -5 5 0 0. 9.
 15 1 1 2 0 0 1.70262 -4.3464 -0.22844 5 1.7768 0. 1
 -15 1 1 2 0 0 -1.70262 4.3464 0.22844 5 1.7768 0. -1
</event>
<event>
 4 80 1 -1 -1 -1
 11 -1 0 0 0 0 0 0 5 5 0 0. 9.
 -11 -1 0 0 0 0 0 0 -5 5 0 0. 9.
 15 1 1 2 0 0 2.13076 -3.1568 -2.70865 5 1.7768 0. 1
 -15 1 1 2 0 0 -2.13076 3.1568 2.70865 5 1.7768 0. -1
</event>
<event>
 4 80 1 -1 -1 -1
 11 -1 0 0 0 0 0 0 4.85949 4.85949 0 0. 9.
 -11 -1 0 0 0 0 0 0 -5 5 0 0. 9.
 15 1 1 2 0 0 -0.925254 3.89323 -2.33464 4.96202 1.7768 0. -1
 -15 1 1 2 0 0 0.925254 -3.89323 2.19413 4.89747 1.7768 0. 1
</event>
<event>
 4 80 1 -1 -1 -1
 11 -1 0 0 0 0 0 0 5 5 0 0. 9.
 -11 -1 0 0 0 0 0 0 -5 5 0 0. 9.
 15 1 1 2 0 0 -3.65134 -2.46288 -1.56339 5 1.7768 0. 1
 -15 1 1 2 0 0 3.65134 2.46288 1.56339 5 1.7768 0. -1
</event>
<event>
 4 80 1 -1 -1 -1
 11 -1 0 0 0 0 0 0 3.99754 3.99754 0 0. 9.
 -11 -1 0 0 0 0 0 0 -3.7973 3.7973 0 0. 9.
 15 1 1 2 0 0 0.395862 -1.05313 -3.18065 3.81314 1.7768 0. 1
 -15 1 1 2 0 0 -0.395862 1.05313 3.38089 3.9817 1.7768 0. -1
</event>
<event>
 4 80 1 -1 -1 -1
 11 -1 0 0 0 0 0 0 2.93131 2.93131 0 0. 9.
 -11 -1 0 0 0 0 0 0 -4.99688 4.99688 0 0. 9.
 15 1 1 2 0 0 -3.3239 -0.425818 -1.56092 4.10169 1.7768 0. -1
 -15 1 1 2 0 0 3.3239 0.425818 -0.504653 3.82649 1.7768 0. 1
</event>
<event>
 4 80 1 -1 -1 -1
 11 -1 0 0 0 0 0 0 5 5 0 0. 9.
 -11 -1 0 0 0 0 0 0 -5 5 0 0. 9.
 15 1 1 2 0 0 -2.36757 3.60447 1.80129 5 1.7768 0. -1
 -15 1 1 2 0 0 2.36757 -3.60447 -1.80129 5 1.7768 0. 1
</event>
<event>
 4 80 1 -1 -1 -1
 11 -1 0 0 0 0 0 0 5 5 0 0. 9.
 -11 -1 0 0 0 0 0 0 -5 5 0 0. 9.
 15 1 1 2 0 0 0.886661 1.33408 -4.39048 5 1.7768 0. -1
 -15 1 1 2 0 0 -0.886661 -1.33408 4.39048 5 1.7768 0. 1
</event>
<event>
 4 80 1 -1 -1 -1
 11 -1 0 0 0 0 0 0 5 5 0 0. 9.
 -11 -1 0 0 0 0 0 0 -5 5 0 0. 9.
 15 1 1 2 0 0 -4.33896 0.749015 -1.56675 5 1.7768 0. -1
 -15 1 1 2 0 0 4.33896 -0.749015 1.56675 5 1.7768 0. 1
</event>
<event>
 4 80 1 -1 -1 -1
 11 -1 0 0 0 0 0 0 5 5 0 0. 9.
 -11 -1 0 0 0 0 0 0 -5 5 0 0. 9.
 15 1 1 2 0 0 1.64076 1.75624 4.00822 5 1.7768 0. -1
 -15 1 1 2 0 0 -1.64076 -1.75624 -4.00822 5 1.7768 0. 1
</event>
<event>
 4 80 1 -1 -1 -1
 11 -1 0 0 0 0 0 0 4.9964 4.9964 0 0. 9.
 -11 -1 0 0 0 0 0 0 -4.99735 4.99735 0 0. 9.
 15 1 1 2 0 0 3.57928 1.00332 -2.82769 4.99714 1.7768 0. -1
 -15 1 1 2 0 0 -3.57928 -1.00332 2.82674 4.99661 1.7768 0. 1
</event>
<event>
 4 80 1 -1 -1 -1
 11 -1 0 0 0 0 0 0 5 5 0 0. 9.
 -11 -1 0 0 0 0 0 0 -4.85865 4.85865 0 0. 9.
 15 1 1 2 0 0 -2.81428 3.28022 1.63785 4.95179 1.7768 0. -1
 -15 1 1 2 0 0 2.81428 -3.28022 -1.4965 4.90686 1.7768 0. 1
</event>
<event>
 4 80 1 -1 -1 -1
 11 -1 0 0 0 0 0 0 5 5 0 0. 9.
 -11 -1 0 0 0 0 0 0 -5 5 0 0. 9.
 15 1 1 2 0 0 -0.813187 3.77276 -2.63577 5 1.7768 0. 1
 -15 1 1 2 0 0 0.813187 -3.77276 2.63577 5 1.7768 0. -1
</event>
<event>
 4 80 1 -1 -1 -1
 11 -1 0 0 0 0 0 0 5 5 0 0. 9.
 -11 -1 0 0 0 0 0 0 -4.99996 4.99996 0 0. 9.
 15 1 1 2 0 0 3.68945 0.481894 -2.82803 4.99997 1.7768 0. -1
 -15 1 1 2 0 0 -3.68945 -0.481894 2.82806 4.99999 1.7768 0. 1
</event>
<event>
 4 80 1 -1 -1 -1
 11 -1 0 0 0 0 0 0 5 5 0 0. 9.
 -11 -1 0 0 0 0 0 0 -4.99808 4.99808 0 0. 9.
 15 1 1 2 0 0 -4.60791 -0.213512 -0.743491 4.9989 1.7768 0. -1
 -15 1 1 2 0 0 4.60791 0.213512 0.745409 4.99918 1.7768 0. 1
</event>
<event>
 4 80 1 -1 -1 -1
 11 -1 0 0 0 0 0 0 5 5 0 0. 9.
 -11 -1 0 0 0 0 0 0 -5 5 0 0. 9.
 15 1 1 2 0 0 1.74821 2.69328 -3.39592 5 1.7768 0. -1
 -15 1 1 2 0 0 -1.74821 -2.69328 3.39592 5 1.7768 0. 1
</event>
<event>
 4 80 1 -1 -1 -1
 11 -1 0 0 0 0 0 0 5 5 0 0. 9.
 -11 -1 0 0 0 0 0 0 -4.99982 4.99982 0 0. 9.
 15 1 1 2 0 0 4.26098 1.73886 -0.813382 4.99989 1.7768 0. -1
 -15 1 1 2 0 0 -4.26098 -1.73886 0.813567 4.99992 1.7768 0. 1
</event>
<event>
 4 80 1 -1 -1 -1
 11 -1 0 0 0 0 0 0 4.99352 4.99352 0 0. 9.
 -11 -1 0 0 0 0 0 0 -5 5 0 0. 9.
 15 1 1 2 0 0 3.96298 -2.47056 0.028067 4.99674 1.7768 0. 1
 -15 1 1 2 0 0 -3.96298 2.47056 -0.0345489 4.99678 1.7768 0. -1
</event>
<event>
 4 80 1 -1 -1 -1
 11 -1 0 0 0 0 0 0 5 5 0 0. 9.
 -11 -1 0 0 0 0 0 0 -4.29854 4.29854 0 0. 9.
 15 1 1 2 0 0 1.80569 -3.17642 -1.88832 4.48036 1.7768 0. -1
 -15 1 1 2 0 0 -1.80569 3.17642 2.58978 4.81818 1.7768 0. 1
</event>
<event>
 4 80 1 -1 -1 -1
 11 -1 0 0 0 0 0 0 4.87889 4.87889 0 0. 9.
 -11 -1 0 0 0 0 0 0 -4.96337 4.96337 0 0. 9.
 15 1 1 2 0 0 -4.22827 -1.78105 -0.129618 4.92188 1.7768 0. 1
 -15 1 1 2 0 0 4.22827 1.78105 0.0451367 4.92038 1.7768 0. -1
</event>
<event>
 4 80 1 -1 -1 -1
 11 -1 0 0 0 0 0 0 4.99989 4.99989 0 0. 9.
 -11 -1 0 0 0 0 0 0 -5 5 0 0. 9.
 15 1 1 2 0 0 4.11125 2.17214 0.470177 4.99994 1.7768 0. 1
 -15 1 1 2 0 0 -4.11125 -2.17214 -0.470283 4.99995 1.7768 0. -1
</event>
<event>
 4 80 1 -1 -1 -1
 11 -1 0 0 0 0 0 0 4.99999 4.99999 0 0. 9.
 -11 -1 0 0 0 0 0 0 -5 5 0 0. 9.
 15 1 1 2 0 0 1.96917 1.24648 -4.05104 5 1.7768 0. 1
 -15 1 1 2 0 0 -1.96917 -1.24648 4.05104 4.99999 1.7768 0. -1
</event>
<event>
 4 80 1 -1 -1 -1
 11 -1 0 0 0 0 0 0 5 5 0 0. 9.
 -11 -1 0 0 0 0 0 0 -4.99993 4.99993 0 0. 9.
 15 1 1 2 0 0 3.47499 2.96659 0.98274 4.99997 1.7768 0. -1
 -15 1 1 2 0 0 -3.47499 -2.96659 -0.982667 4.99996 1.7768 0. 1
</event>
<event>
 4 80 1 -1 -1 -1
 11 -1 0 0 0 0 0 0 4.99999 4.99999 0 0. 9.
 -11 -1 0 0 0 0 0 0 -5 5 0 0. 9.
 15 1 1 2 0 0 2.63374 1.02149 -3.7232 5 1.7768 0. 1
 -15 1 1 2 0 0 -2.63374 -1.02149 3.7232 5 1.7768 0. -1
</event>
<event>
 4 80 1 -1 -1 -1
 11 -1 0 0 0 0 0 0 5 5 0 0. 9.
 -11 -1 0 0 0 0 0 0 -5 5 0 0. 9.
 15 1 1 2 0 0 -4.15996 -1.09004 1.82997 5 1.7768 0. 1
 -15 1 1 2 0 0 4.15996 1.09004 -1.82997 5 1.7768 0. -1
</event>
<event>
 4 80 1 -1 -1 -1
 11 -1 0 0 0 0 0 0 5 5 0 0. 9.
 -11 -1 0 0 0 0 0 0 -4.99999 4.99999 0 0. 9.
 15 1 1 2 0 0 1.35932 -3.08306 3.23871 5 1.7768 0. -1
 -15 1 1 2 0 0 -1.35932 3.08306 -3.23871 4.99999 1.7768 0. 1
</event>
<event>
 4 80 1 -1 -1 -1
 11 -1 0 0 0 0 0 0 4.1841 4.1841 0 0. 9.
 -11 -1 0 0 0 0 0 0 -4.99946 4.99946 0 0. 9.
 15 1 1 2 0 0 3.14495 -2.07543 1.48722 4.42354 1.7768 0. 1
 -15 1 1 2 0 0 -3.14495 2.07543 -2.30259 4.76002 1.7768 0. -1
</event>
<event>
 4 80 1 -1 -1 -1
 11 -1 0 0 0 0 0 0 4.99992 4.99992 0 0. 9.
 -11 -1 0 0 0 0 0 0 -5 5 0 0. 9.
 15 1 1 2 0 0 2.61691 -0.636731 -3.8195 4.99999 1.7768 0. 1
 -15 1 1 2 0 0 -2.61691 0.636731 3.81942 4.99993 1.7768 0. -1
</event>
<event>
 4 80 1 -1 -1 -1
 11 -1 0 0 0 0 0 0 3.88794 3.88794 0 0. 9.
 -11 -1 0 0 0 0 0 0 -4.92289 4.92289 0 0. 9.
 15 1 1 2 0 0 0.546571 -1.73013 -4.10462 4.82677 1.7768 0. -1
 -15 1 1 2 0 0 -0.546571 1.73013 3.06967 3.98405 1.7768 0. 1
</event>
<event>
 4 80 1 -1 -1 -1
 11 -1 0 0 0 0 0 0 4.98107 4.98107 0 0. 9.
 -11 -1 0 0 0 0 0 0 -4.99991 4.99991 0 0. 9.
 15 1 1 2 0 0 4.02519 -1.73159 1.58639 4.98747 1.7768 0. -1
 -15 1 1 2 0 0 -4.02519 1.73159 -1.60523 4.9935 1.7768 0. 1
</event>
<event>
 4 80 1 -1 -1 -1
 11 -1 0 0 0 0 0 0 5 5 0 0. 9.
 -11 -1 0 0 0 0 0 0 -5 5 0 0. 9.
 15 1 1 2 0 0 -0.406566 -4.43686 1.41112 5 1.7768 0. 1
 -15 1 1 2 0 0 0.406566 4.43686 -1.41112 5 1.7768 0. -1
</event>
<event>
 4 80 1 -1 -1 -1
 11 -1 0 0 0 0 0 0 1.7374 1.7374 0 0. 9.
 -11 -1 0 0 0 0 0 0 -4.99985 4.99985 0 0. 9.
 15 1 1 2 0 0 0.231687 0.968885 -4.06561 4.54746 1.7768 0. 1
 -15 1 1 2 0 0 -0.231687 -0.968885 0.803155 2.1898 1.7768 0. -1
</event>
<event>
 4 80 1 -1 -1 -1
 11 -1 0 0 0 0 0 0 4.99931 4.99931 0 0. 9.
 -11 -1 0 0 0 0 0 0 -4.99903 4.99903 0 0. 9.
 15 1 1 2 0 0 -0.881461 -4.49113 0.941823 4.9992 1.7768 0. -1
 -15 1 1 2 0 0 0.881461 4.49113 -0.941543 4.99915 1.7768 0. 1
</event>
<event>
 4 80 1 -1 -1 -1
 11 -1 0 0 0 0 0 0 4.99999 4.99999 0 0. 9.
 -11 -1 0 0 0 0 0 0 -5 5 0 0. 9.
 15 1 1 2 0 0 4.52157 0.97453 0.669244 5 1.7768 0. -1
 -15 1 1 2 0 0 -4.52157 -0.97453 -0.669251 5 1.7768 0. 1
</event>
<event>
 4 80 1 -1 -1 -1
 11 -1 0 0 0 0 0 0 5 5 0 0. 9.
 -11 -1 0 0 0 0 0 0 -5 5 0 0. 9.
 15 1 1 2 0 0 -1.69584 -4.3024 -0.675107 5 1.7768 0. 1
 -15 1 1 2 0 0 1.69584 4.3024 0.675108 5 1.7768 0. -1
</event>
<event>
 4 80 1 -1 -1 -1
 11 -1 0 0 0 0 0 0 4.30887 4.30887 0 0. 9.
 -11 -1 0 0 0 0 0 0 -4.99992 4.99992 0 0. 9.
 15 1 1 2 0 0 3.40424 -2.55102 0.194216 4.61432 1.7768 0. -1
 -15 1 1 2 0 0 -3.40424 2.55102 -0.885268 4.69446 1.7768 0. 1
</event>
<event>
 4 80 1 -1 -1 -1
 11 -1 0 0 0 0 0 0 4.98976 4.98976 0 0. 9.
 -11 -1 0 0 0 0 0 0 -4.92457 4.92457 0 0. 9.
 15 1 1 2 0 0 -3.22788 -2.01921 -2.59772 4.93987 1.7768 0. 1
 -15 1 1 2 0 0 3.22788 2.01921 2.66291 4.97446 1.7768 0. -1
</event>
<event>
 4 80 1 -1 -1 -1
 11 -1 0 0 0 0 0 0 5 5 0 0. 9.
 -11 -1 0 0 0 0 0 0 -5 5 0 0. 9.
 15 1 1 2 0 0 2.64816 3.83532 -0.346159 5 1.7768 0. 1
 -15 1 1 2 0 0 -2.64816 -3.83532 0.346159 5 1.7768 0. -1
</event>
<event>
 4 80 1 -1 -1 -1
 11 -1 0 0 0 0 0 0 5 5 0 0. 9.
 -11 -1 0 0 0 0 0 0 -4.99998 4.99998 0 0. 9.
 15 1 1 2 0 0 3.54439 -0.207481 -3.03913 4.99998 1.7768 0. -1
 -15 1 1 2 0 0 -3.54439 0.207481 3.03915 4.99999 1.7768 0. 1
</event>
<event>
 4 80 1 -1 -1 -1
 11 -1 0 0 0 0 0 0 4.97759 4.97759 0 0. 9.
 -11 -1 0 0 0 0 0 0 -5 5 0 0. 9.
 15 1 1 2 0 0 -2.17161 -0.703893 4.05315 4.97967 1.7768 0. -1
 -15 1 1 2 0 0 2.17161 0.703893 -4.07555 4.99792 1.7768 0. 1
</event>
<event>
 4 80 1 -1 -1 -1
 11 -1 0 0 0 0 0 0 5 5 0 0. 9.
 -11 -1 0 0 0 0 0 0 -4.89034 4.89034 0 0. 9.
 15 1 1 2 0 0 -3.97934 -1.67201 1.68688 4.96327 1.7768 0. 1
 -15 1 1 2 0 0 3.97934 1.67201 -1.57722 4.92708 1.7768 0. -1
</event>
<event>
 4 80 1 -1 -1 -1
 11 -1 0 0 0 0 0 0 4.99999 4.99999 0 0. 9.
 -11 -1 0 0 0 0 0 0 -5 5 0 0. 9.
 15 1 1 2 0 0 -4.35262 -0.752392 -1.5267 5 1.7768 0. -1
 -15 1 1 2 0 0 4.35262 0.752392 1.52669 4.99999 1.7768 0. 1
</event>
<event>
 4 80 1 -1 -1 -1
 11 -1 0 0 0 0 0 0 5 5 0 0. 9.
 -11 -1 0 0 0 0 0 0 -5 5 0 0. 9.
 15 1 1 2 0 0 0.166124 -3.66617 -2.89377 5 1.7768 0. -1
 -15 1 1 2 0 0 -0.166124 3.66617 2.89377 5 1.7768 0. 1
</event>
<event>
 4 80 1 -1 -1 -1
 11 -1 0 0 0 0 0 0 5 5 0 0. 9.
 -11 -1 0 0 0 0 0 0 -4.72356 4.72356 0 0. 9.
 15 1 1 2 0 0 2.863 1.51096 3.29866 4.95163 1.7768 0. 1
 -15 1 1 2 0 0 -2.863 -1.51096 -3.02222 4.77193 1.7768 0. -1
</event>
<event>
 4 80 1 -1 -1 -1
 11 -1 0 0 0 0 0 0 5 5 0 0. 9.
 -11 -1 0 0 0 0 0 0 -5 5 0 0. 9.
 15 1 1 2 0 0 -3.14526 -1.53684 3.0964 5 1.7768 0. 1
 -15 1 1 2 0 0 3.14526 1.53684 -3.0964 5 1.7768 0. -1
</event>
<event>
 4 80 1 -1 -1 -1
 11 -1 0 0 0 0 0 0 4.99999 4.99999 0 0. 9.
 -11 -1 0 0 0 0 0 0 -4.99824 4.99824 0 0. 9.
 15 1 1 2 0 0 -2.12224 4.07079 -0.869891 4.99896 1.7768 0. 1
 -15 1 1 2 0 0 2.12224 -4.07079 0.871643 4.99927 1.7768 0. -1
</event>
<event>
 4 80 1 -1 -1 -1
 11 -1 0 0 0 0 0 0 4.95922 4.95922 0 0. 9.
 -11 -1 0 0 0 0 0 0 -5 5 0 0. 9.
 15 1 1 2 0 0 -4.64108 -0.311006 -0.0654059 4.97979 1.7768 0. 1
 -15 1 1 2 0 0 4.64108 0.311006 0.0246211 4.97942 1.7768 0. -1
</event>
<event>
 4 80 1 -1 -1 -1
 11 -1 0 0 0 0 0 0 3.05105 3.05105 0 0. 9.
 -11 -1 0 0 0 0 0 0 -5 5 0 0. 9.
 15 1 1 2 0 0 0.24539 0.246926 2.5923 3.16211 1.7768 0. -1
 -15 1 1 2 0 0 -0.24539 -0.246926 -4.54124 4.88895 1.7768 0. 1
</event>
<event>
 4 80 1 -1 -1 -1
 11 -1 0 0 0 0 0 0 5 5 0 0. 9.
 -11 -1 0 0 0 0 0 0 -4.99997 4.99997 0 0. 9.
 15 1 1 2 0 0 3.66585 -1.97469 2.12235 4.99999 1.7768 0. -1
 -15 1 1 2 0 0 -3.66585 1.97469 -2.12232 4.99998 1.7768 0. 1
</event>
<event>
 4 80 1 -1 -1 -1
 11 -1 0 0 0 0 0 0 3.84733 3.84733 0 0. 9.
 -11 -1 0 0 0 0 0 0 -5 5 0 0. 9.
 15 1 1 2 0 0 -2.17356 -1.35091 2.53721 4.01802 1.7768 0. -1
 -15 1 1 2 0 0 2.17356 1.35091 -3.68988 4.82931 1.7768 0. 1
</event>
<event>
 4 80 1 -1 -1 -1
 11 -1 0 0 0 0 0 0 5 5 0 0. 9.
 -11 -1 0 0 0 0 0 0 -4.99996 4.99996 0 0. 9.
 15 1 1 2 0 0 -1.09149 4.50989 0.558262 4.99998 1.7768 0. -1
 -15 1 1 2 0 0 1.09149 -4.50989 -0.558219 4.99998 1.7768 0. 1
</event>
<event>
 4 80 1 -1 -1 -1
 11 -1 0 0 0 0 0 0 2.04834 2.04834 0 0. 9.
 -11 -1 0 0 0 0 0 0 -5 5 0 0. 9.
 15 1 1 2 0 0 2.06384 0.846097 -3.07492 4.19383 1.7768 0. 1
 -15 1 1 2 0 0 -2.06384 -0.846097 0.123267 2.85451 1.7768 0. -1
</event>
<event>
 4 80 1 -1 -1 -1
 11 -1 0 0 0 0 0 0 4.99973 4.99973 0 0. 9.
 -11 -1 0 0 0 0 0 0 -0.991778 0.991778 0 0. 9.
 15 1 1 2 0 0 -0.641208 0.337971 0.484585 1.97937 1.7768 0. 1
 -15 1 1 2 0 0 0.641208 -0.337971 3.52337 4.01213 1.7768 0. -1
</event>
<event>
 4 80 1 -1 -1 -1
 11 -1 0 0 0 0 0 0 5 5 0 0. 9.
 -11 -1 0 0 0 0 0 0 -5 5 0 0. 9.
 15 1 1 2 0 0 1.84891 -3.75435 2.08054 5 1.7768 0. -1
 -15 1 1 2 0 0 -1.84891 3.75435 -2.08054 5 1.7768 0. 1
</event>
<event>
 4 80 1 -1 -1 -1
 11 -1 0 0 0 0 0 0 4.99976 4.99976 0 0. 9.
 -11 -1 0 0 0 0 0 0 -5 5 0 0. 9.
 15 1 1 2 0 0 1.85756 -4.0876 -1.29709 4.99991 1.7768 0. 1
 -15 1 1 2 0 0 -1.85756 4.0876 1.29685 4.99985 1.7768 0. -1
</event>
<event>
 4 80 1 -1 -1 -1
 11 -1 0 0 0 0 0 0 5 5 0 0. 9.
 -11 -1 0 0 0 0 0 0 -4.99998 4.99998 0 0. 9.
 15 1 1 2 0 0 -0.207773 -2.47296 -3.96023 4.99998 1.7768 0. -1
 -15 1 1 2 0 0 0.207773 2.47296 3.96024 5 1.7768 0. 1
</event>
<event>
 4 80 1 -1 -1 -1
 11 -1 0 0 0 0 0 0 5 5 0 0. 9.
 -11 -1 0 0 0 0 0 0 -4.99997 4.99997 0 0. 9.
 15 1 1 2 0 0 -1.3163 -2.64186 3.62356 5 1.7768 0. -1
 -15 1 1 2 0 0 1.3163 2.64186 -3.62353 4.99998 1.7768 0. 1
</event>
<event>
 4 80 1 -1 -1 -1
 11 -1 0 0 0 0 0 0 4.99994 4.99994 0 0. 9.
 -11 -1 0 0 0 0 0 0 -4.67433 4.67433 0 0. 9.
 15 1 1 2 0 0 0.899249 2.9561 3.43061 4.94712 1.7768 0. -1
 -15 1 1 2 0 0 -0.899249 -2.9561 -3.10501 4.72715 1.7768 0. 1
</event>
<event>
 4 80 1 -1 -1 -1
 11 -1 0 0 0 0 0 0 4.59872 4.59872 0 0. 9.
 -11 -1 0 0 0 0 0 0 -5 5 0 0. 9.
 15 1 1 2 0 0 2.65508 -0.736718 3.30152 4.65295 1.7768 0. -1
 -15 1 1 2 0 0 -2.65508 0.736718 -3.7028 4.94577 1.7768 0. 1
</event>
<event>
 4 80 1 -1 -1 -1
 11 -1 0 0 0 0 0 0 5 5 0 0. 9.
 -11 -1 0 0 0 0 0 0 -5 5 0 0. 9.
 15 1 1 2 0 0 0.909395 4.29552 1.60119 5 1.7768 0. 1
 -15 1 1 2 0 0 -0.909395 -4.29552 -1.60119 5 1.7768 0. -1
</event>
<event>
 4 80 1 -1 -1 -1
 11 -1 0 0 0 0 0 0 5 5 0 0. 9.
 -11 -1 0 0 0 0 0 0 -5 5 0 0. 9.
 15 1 1 2 0 0 -3.86336 1.25707 -2.31009 5 1.7768 0. -1
 -15 1 1 2 0 0 3.86336 -1.25707 2.31009 5 1.7768 0. 1
</event>
<event>
 4 80 1 -1 -1 -1
 11 -1 0 0 0 0 0 0 4.99974 4.99974 0 0. 9.
 -11 -1 0 0 0 0 0 0 -5 5 0 0. 9.
 15 1 1 2 0 0 -1.0829 -1.47762 4.29929 4.99976 1.7768 0. -1
 -15 1 1 2 0 0 1.0829 1.47762 -4.29954 4.99998 1.7768 0. 1
</event>
<event>
 4 80 1 -1 -1 -1
 11 -1 0 0 0 0 0 0 4.99995 4.99995 0 0. 9.
 -11 -1 0 0 0 0 0 0 -4.97878 4.97878 0 0. 9.
 15 1 1 2 0 0 2.34487 -2.83542 2.87378 4.99544 1.7768 0. -1
 -15 1 1 2 0 0 -2.34487 2.83542 -2.85262 4.98329 1.7768 0. 1
</event>
<event>
 4 80 1 -1 -1 -1
 11 -1 0 0 0 0 0 0 5 5 0 0. 9.
 -11 -1 0 0 0 0 0 0 -5 5 0 0. 9.
 15 1 1 2 0 0 -3.98857 -2.43067 0.159401 5 1.7768 0. 1
 -15 1 1 2 0 0 3.98857 2.43067 -0.159401 5 1.7768 0. -1
</event>
<event>
 4 80 1 -1 -1 -1
 11 -1 0 0 0 0 0 0 5 5 0 0. 9.
 -11 -1 0 0 0 0 0 0 -4.99999 4.99999 0 0. 9.
 15 1 1 2 0 0 -1.86135 -4.28644 0.0631148 4.99999 1.7768 0. 1
 -15 1 1 2 0 0 1.86135 4.28644 -0.0631008 4.99999 1.7768 0. -1
</event>
<event>
 4 80 1 -1 -1 -1
 11 -1 0 0 0 0 0 0 4.99466 4.99466 0 0. 9.
 -11 -1 0 0 0 0 0 0 -4.99999 4.99999 0 0. 9.
 15 1 1 2 0 0 -4.37357 -1.17051 1.14507 4.99671 1.7768 0. -1
 -15 1 1 2 0 0 4.37357 1.17051 -1.1504 4.99794 1.7768 0. 1
</event>
<event>
 4 80 1 -1 -1 -1
 11 -1 0 0 0 0 0 0 5 5 0 0. 9.
 -11 -1 0 0 0 0 0 0 -3.07494 3.07494 0 0. 9.
 15 1 1 2 0 0 -1.99612 1.7309 3.3188 4.5992 1.7768 0. -1
 -15 1 1 2 0 0 1.99612 -1.7309 -1.39374 3.47574 1.7768 0. 1
</event>
<event>
 4 80 1 -1 -1 -1
 11 -1 0 0 0 0 0 0 5 5 0 0. 9.
 -11 -1 0 0 0 0 0 0 -5 5 0 0. 9.
 15 1 1 2 0 0 -2.85338 -0.960488 3.57463 5 1.7768 0. -1
 -15 1 1 2 0 0 2.85338 0.960488 -3.57463 5 1.7768 0. 1
</event>
<event>
 4 80 1 -1 -1 -1
 11 -1 0 0 0 0 0 0 4.99591 4.99591 0 0. 9.
 -11 -1 0 0 0 0 0 0 -5 5 0 0. 9.
 15 1 1 2 0 0 -2.74162 -3.5742 -1.23913 4.99846 1.7768 0. -1
 -15 1 1 2 0 0 2.74162 3.5742 1.23504 4.99745 1.7768 0. 1
</event>
<event>
 4 80 1 -1 -1 -1
 11 -1 0 0 0 0 0 0 5 5 0 0. 9.
 -11 -1 0 0 0 0 0 0 -2.13617 2.13617 0 0. 9.
 15 1 1 2 0 0 -2.12242 0.0928087 3.32603 4.32822 1.7768 0. 1
 -15 1 1 2 0 0 2.12242 -0.0928087 -0.462199 2.80796 1.7768 0. -1
</event>
<event>
 4 80 1 -1 -1 -1
 11 -1 0 0 0 0 0 0 5 5 0 0. 9.
 -11 -1 0 0 0 0 0 0 -5 5 0 0. 9.
 15 1 1 2 0 0 -0.0650797 -2.74179 -3.78426 5 1.7768 0. 1
 -15 1 1 2 0 0 0.0650797 2.74179 3.78426 5 1.7768 0. -1
</event>
<event>
 4 80 1 -1 -1 -1
 11 -1 0 0 0 0 0 0 5 5 0 0. 9.
 -11 -1 0 0 0 0 0 0 -5 5 0 0. 9.
 15 1 1 2 0 0 -3.20486 -3.39959 -0.118117 5 1.7768 0. -1
 -15 1 1 2 0 0 3.20486 3.39959 0.118117 5 1.7768 0. 1
</event>
<event>
 4 80 1 -1 -1 -1
 11 -1 0 0 0 0 0 0 4.99981 4.99981 0 0. 9.
 -11 -1 0 0 0 0 0 0 -1.97847 1.97847 0 0. 9.
 15 1 1 2 0 0 -1.77366 1.23098 3.10795 4.1807 1.7768 0. -1
 -15 1 1 2 0 0 1.77366 -1.23098 -0.0866159 2.79758 1.7768 0. 1
</event>
<event>
 4 80 1 -1 -1 -1
 11 -1 0 0 0 0 0 0 5 5 0 0. 9.
 -11 -1 0 0 0 0 0 0 -4.99995 4.99995 0 0. 9.
 15 1 1 2 0 0 1.28546 -3.62499 -2.65498 4.99996 1.7768 0. -1
 -15 1 1 2 0 0 -1.28546 3.62499 2.65503 4.99999 1.7768 0. 1
</event>
<event>
 4 80 1 -1 -1 -1
 11 -1 0 0 0 0 0 0 5 5 0 0. 9.
 -11 -1 0 0 0 0 0 0 -5 5 0 0. 9.
 15 1 1 2 0 0 2.29874 3.31835 -2.35513 5 1.7768 0. -1
 -15 1 1 2 0 0 -2.29874 -3.31835 2.35513 5 1.7768 0. 1
</event>
<event>
 4 80 1 -1 -1 -1
 11 -1 0 0 0 0 0 0 2.77774 2.77774 0 0. 9.
 -11 -1 0 0 0 0 0 0 -5 5 0 0. 9.
 15 1 1 2 0 0 -0.34166 1.68082 1.80117 3.05677 1.7768 0. -1
 -15 1 1 2 0 0 0.34166 -1.68082 -4.02343 4.72097 1.7768 0. 1
</event>
<event>
 4 80 1 -1 -1 -1
 11 -1 0 0 0 0 0 0 5 5 0 0. 9.
 -11 -1 0 0 0 0 0 0 -5 5 0 0. 9.
 15 1 1 2 0 0 -4.33672 -0.913514 -1.48346 5 1.7768 0. 1
 -15 1 1 2 0 0 4.33672 0.913514 1.48346 5 1.7768 0. -1
</event>
<event>
 4 80 1 -1 -1 -1
 11 -1 0 0 0 0 0 0 5 5 0 0. 9.
 -11 -1 0 0 0 0 0 0 -4.99961 4.99961 0 0. 9.
 15 1 1 2 0 0 1.59985 4.38708 -0.185077 4.9998 1.7768 0. 1
 -15 1 1 2 0 0 -1.59985 -4.38708 0.18547 4.99981 1.7768 0. -1
</event>
<event>
 4 80 1 -1 -1 -1
 11 -1 0 0 0 0 0 0 5 5 0 0. 9.
 -11 -1 0 0 0 0 0 0 -5 5 0 0. 9.
 15 1 1 2 0 0 2.5422 -1.672 3.54738 5 1.7768 0. -1
 -15 1 1 2 0 0 -2.5422 1.672 -3.54738 5 1.7768 0. 1
</event>
<event>
 4 80 1 -1 -1 -1
 11 -1 0 0 0 0 0 0 4.99343 4.99343 0 0. 9.
 -11 -1 0 0 0 0 0 0 -4.99994 4.99994 0 0. 9.
 15 1 1 2 0 0 -2.94555 -0.207303 3.61473 4.99432 1.7768 0. -1
 -15 1 1 2 0 0 2.94555 0.207303 -3.62125 4.99904 1.7768 0. 1
</event>
<event>
 4 80 1 -1 -1 -1
 11 -1 0 0 0 0 0 0 5 5 0 0. 9.
 -11 -1 0 0 0 0 0 0 -5 5 0 0. 9.
 15 1 1 2 0 0 -3.21955 -0.297308 3.37466 5 1.7768 0. 1
 -15 1 1 2 0 0 3.21955 0.297308 -3.37466 5 1.7768 0. -1
</event>
<event>
 4 80 1 -1 -1 -1
 11 -1 0 0 0 0 0 0 5 5 0 0. 9.
 -11 -1 0 0 0 0 0 0 -4.99708 4.99708 0 0. 9.
 15 1 1 2 0 0 1.31469 -1.23618 4.31088 4.9998 1.7768 0. -1
 -15 1 1 2 0 0 -1.31469 1.23618 -4.30796 4.99728 1.7768 0. 1
</event>
<event>
 4 80 1 -1 -1 -1
 11 -1 0 0 0 0 0 0 5 5 0 0. 9.
 -11 -1 0 0 0 0 0 0 -4.99998 4.99998 0 0. 9.
 15 1 1 2 0 0 -4.50913 -0.494332 -1.12495 4.99998 1.7768 0. 1
 -15 1 1 2 0 0 4.50913 0.494332 1.12497 4.99999 1.7768 0. -1
</event>
<event>
 4 80 1 -1 -1 -1
 11 -1 0 0 0 0 0 0 5 5 0 0. 9.
 -11 -1 0 0 0 0 0 0 -4.51239 4.51239 0 0. 9.
 15 1 1 2 0 0 0.756055 0.889294 -4.00935 4.53818 1.7768 0. -1
 -15 1 1 2 0 0 -0.756055 -0.889294 4.49696 4.97421 1.7768 0. 1
</event>
<event>
 4 80 1 -1 -1 -1
 11 -1 0 0 0 0 0 0 5 5 0 0. 9.
 -11 -1 0 0 0 0 0 0 -5 5 0 0. 9.
 15 1 1 2 0 0 -3.65191 0.946469 2.75863 5 1.7768 0. 1
 -15 1 1 2 0 0 3.65191 -0.946469 -2.75863 5 1.7768 0. -1
</event>
<event>
 4 80 1 -1 -1 -1
 11 -1 0 0 0 0 0 0 4.99988 4.99988 0 0. 9.
 -11 -1 0 0 0 0 0 0 -5 5 0 0. 9.
 15 1 1 2 0 0 1.04886 -4.48419 0.795927 4.99993 1.7768 0. 1
 -15 1 1 2 0 0 -1.04886 4.48419 -0.796051 4.99995 1.7768 0. -1
</event>
<event>
 4 80 1 -1 -1 -1
 11 -1 0 0 0 0 0 0 4.58302 4.58302 0 0. 9.
 -11 -1 0 0 0 0 0 0 -4.98579 4.98579 0 0. 9.
 15 1 1 2 0 0 3.97414 0.590246 -2.08723 4.86379 1.7768 0. -1
 -15 1 1 2 0 0 -3.97414 -0.590246 1.68446 4.70503 1.7768 0. 1
</event>
<event>
 4 80 1 -1 -1 -1
 11 -1 0 0 0 0 0 0 5 5 0 0. 9.
 -11 -1 0 0 0 0 0 0 -5 5 0 0. 9.
 15 1 1 2 0 0 3.3252 0.758779 3.19524 5 1.7768 0. 1
 -15 1 1 2 0 0 -3.3252 -0.758779 -3.19524 5 1.7768 0. -1
</event>
<event>
 4 80 1 -1 -1 -1
 11 -1 0 0 0 0 0 0 5 5 0 0. 9.
 -11 -1 0 0 0 0 0 0 -5 5 0 0. 9.
 15 1 1 2 0 0 0.155865 3.50975 -3.08215 5 1.7768 0. -1
 -15 1 1 2 0 0 -0.155865 -3.50975 3.08215 5 1.7768 0. 1
</event>
<event>
 4 80 1 -1 -1 -1
 11 -1 0 0 0 0 0 0 4.99918 4.99918 0 0. 9.
 -11 -1 0 0 0 0 0 0 -4.52466 4.52466 0 0. 9.
 15 1 1 2 0 0 -1.77359 1.29496 -3.59363 4.57105 1.7768 0. -1
 -15 1 1 2 0 0 1.77359 -1.29496 4.06815 4.95279 1.7768 0. 1
</event>
<event>
 4 80 1 -1 -1 -1
 11 -1 0 0 0 0 0 0 4.61253 4.61253 0 0. 9.
 -11 -1 0 0 0 0 0 0 -5 5 0 0. 9.
 15 1 1 2 0 0 1.69893 1.21417 3.7521 4.64721 1.7768 0. 1
 -15 1 1 2 0 0 -1.69893 -1.21417 -4.13957 4.96532 1.7768 0. -1
</event>
<event>
 4 80 1 -1 -1 -1
 11 -1 0 0 0 0 0 0 5 5 0 0. 9.
 -11 -1 0 0 0 0 0 0 -3.84471 3.84471 0 0. 9.
 15 1 1 2 0 0 1.66979 0.268716 -3.08769 3.9436 1.7768 0. 1
 -15 1 1 2 0 0 -1.66979 -0.268716 4.24297 4.90112 1.7768 0. -1
</event>
<event>
 4 80 1 -1 -1 -1
 11 -1 0 0 0 0 0 0 5 5 0 0. 9.
 -11 -1 0 0 0 0 0 0 -5 5 0 0. 9.
 15 1 1 2 0 0 1.891 -1.95219 -3.80202 5 1.7768 0. -1
 -15 1 1 2 0 0 -1.891 1.95219 3.80202 5 1.7768 0. 1
</event>
<event>
 4 80 1 -1 -1 -1
 11 -1 0 0 0 0 0 0 4.99997 4.99997 0 0. 9.
 -11 -1 0 0 0 0 0 0 -4.99954 4.99954 0 0. 9.
 15 1 1 2 0 0 -1.36186 1.68123 4.14251 4.99994 1.7768 0. -1
 -15 1 1 2 0 0 1.36186 -1.68123 -4.14208 4.99958 1.7768 0. 1
</event>
<event>
 4 80 1 -1 -1 -1
 11 -1 0 0 0 0 0 0 5 5 0 0. 9.
 -11 -1 0 0 0 0 0 0 -4.99989 4.99989 0 0. 9.
 15 1 1 2 0 0 1.74086 -4.23494 -0.936086 4.99993 1.7768 0. 1
 -15 1 1 2 0 0 -1.74086 4.23494 0.936198 4.99995 1.7768 0. -1
</event>
<event>
 4 80 1 -1 -1 -1
 11 -1 0 0 0 0 0 0 4.99968 4.99968 0 0. 9.
 -11 -1 0 0 0 0 0 0 -4.99938 4.99938 0 0. 9.
 15 1 1 2 0 0 -1.19117 -1.19894 -4.3566 4.9994 1.7768 0. 1
 -15 1 1 2 0 0 1.19117 1.19894 4.3569 4.99966 1.7768 0. -1
</event>
<event>
 4 80 1 -1 -1 -1
 11 -1 0 0 0 0 0 0 4.99813 4.99813 0 0. 9.
 -11 -1 0 0 0 0 0 0 -4.9134 4.9134 0 0. 9.
 15 1 1 2 0 0 -0.354662 1.75346 4.30863 4.99224 1.7768 0. 1
 -15 1 1 2 0 0 0.354662 -1.75346 -4.2239 4.91929 1.7768 0. -1
</event>
<event>
 4 80 1 -1 -1 -1
 11 -1 0 0 0 0 0 0 5 5 0 0. 9.
 -11 -1 0 0 0 0 0 0 -5 5 0 0. 9.
 15 1 1 2 0 0 1.26182 -4.3853 1.00959 5 1.7768 0. -1
 -15 1 1 2 0 0 -1.26182 4.3853 -1.00959 5 1.7768 0. 1
</event>
<event>
 4 80 1 -1 -1 -1
 11 -1 0 0 0 0 0 0 4.99992 4.99992 0 0. 9.
 -11 -1 0 0 0 0 0 0 -5 5 0 0. 9.
 15 1 1 2 0 0 -2.17202 -1.62593 3.80529 4.99993 1.7768 0. 1
 -15 1 1 2 0 0 2.17202 1.62593 -3.80537 4.99999 1.7768 0. -1
</event>
<event>
 4 80 1 -1 -1 -1
 11 -1 0 0 0 0 0 0 4.98784 4.98784 0 0. 9.
 -11 -1 0 0 0 0 0 0 -4.96802 4.96802 0 0. 9.
 15 1 1 2 0 0 0.297926 -2.21836 -4.06589 4.96982 1.7768 0. 1
 -15 1 1 2 0 0 -0.297926 2.21836 4.08572 4.98605 1.7768 0. -1
</event>
<event>
 4 80 1 -1 -1 -1
 11 -1 0 0 0 0 0 0 4.99383 4.99383 0 0. 9.
 -11 -1 0 0 0 0 0 0 -5 5 0 0. 9.
 15 1 1 2 0 0 -1.86347 0.323336 4.26708 4.99428 1.7768 0. 1
 -15 1 1 2 0 0 1.86347 -0.323336 -4.27326 4.99955 1.7768 0. -1
</event>
<event>
 4 80 1 -1 -1 -1
 11 -1 0 0 0 0 0 0 5 5 0 0. 9.
 -11 -1 0 0 0 0 0 0 -4.99843 4.99843 0 0. 9.
 15 1 1 2 0 0 2.40969 -2.70962 -2.94638 4.99875 1.7768 0. 1
 -15 1 1 2 0 0 -2.40969 2.70962 2.94795 4.99968 1.7768 0. -1
</event>
<event>
 4 80 1 -1 -1 -1
 11 -1 0 0 0 0 0 0 4.98834 4.98834 0 0. 9.
 -11 -1 0 0 0 0 0 0 -1.3615 1.3615 0 0. 9.
 15 1 1 2 0 0 1.17314 0.934732 3.2466 3.99351 1.7768 0. -1
 -15 1 1 2 0 0 -1.17314 -0.934732 0.380234 2.35633 1.7768 0. 1
</event>
<event>
 4 80 1 -1 -1 -1
 11 -1 0 0 0 0 0 0 5 5 0 0. 9.
 -11 -1 0 0 0 0 0 0 -5 5 0 0. 9.
 15 1 1 2 0 0 -2.62515 -3.47194 -1.7019 5 1.7768 0. 1
 -15 1 1 2 0 0 2.62515 3.47194 1.7019 5 1.7768 0. -1
</event>
<event>
 4 80 1 -1 -1 -1
 11 -1 0 0 0 0 0 0 5 5 0 0. 9.
 -11 -1 0 0 0 0 0 0 -4.97656 4.97656 0 0. 9.
 15 1 1 2 0 0 0.0794171 4.40766 -1.50199 4.98472 1.7768 0. -1
 -15 1 1 2 0 0 -0.0794171 -4.40766 1.52543 4.99184 1.7768 0. 1
</event>
<event>
 4 80 1 -1 -1 -1
 11 -1 0 0 0 0 0 0 5 5 0 0. 9.
 -11 -1 0 0 0 0 0 0 -5 5 0 0. 9.
 15 1 1 2 0 0 -4.04747 -1.51163 1.78191 5 1.7768 0. 1
 -15 1 1 2 0 0 4.04747 1.51163 -1.78191 5 1.7768 0. -1
</event>
<event>
 4 80 1 -1 -1 -1
 11 -1 0 0 0 0 0 0 5 5 0 0. 9.
 -11 -1 0 0 0 0 0 0 -4.99491 4.99491 0 0. 9.
 15 1 1 2 0 0 -4.14988 -1.94738 -0.893561 4.997 1.7768 0. -1
 -15 1 1 2 0 0 4.14988 1.94738 0.898648 4.99791 1.7768 0. 1
</event>
<event>
 4 80 1 -1 -1 -1
 11 -1 0 0 0 0 0 0 4.81447 4.81447 0 0. 9.
 -11 -1 0 0 0 0 0 0 -4.93097 4.93097 0 0. 9.
 15 1 1 2 0 0 -3.03341 3.24876 -0.967283 4.88359 1.7768 0. -1
 -15 1 1 2 0 0 3.03341 -3.24876 0.850787 4.86185 1.7768 0. 1
</event>
<event>
 4 80 1 -1 -1 -1
 11 -1 0 0 0 0 0 0 4.11979 4.11979 0 0. 9.
 -11 -1 0 0 0 0 0 0 -2.20907 2.20907 0 0. 9.
 15 1 1 2 0 0 -1.22151 0.884512 2.9645 3.771 1.7768 0. 1
 -15 1 1 2 0 0 1.22151 -0.884512 -1.05379 2.55786 1.7768 0. -1
</event>
<event>
 4 80 1 -1 -1 -1
 11 -1 0 0 0 0 0 0 5 5 0 0. 9.
 -11 -1 0 0 0 0 0 0 -5 5 0 0. 9.
 15 1 1 2 0 0 1.55152 4.32308 -0.86372 5 1.7768 0. 1
 -15 1 1 2 0 0 -1.55152 -4.32308 0.86372 5 1.7768 0. -1
</event>
<event>
 4 80 1 -1 -1 -1
 11 -1 0 0 0 0 0 0 4.99999 4.99999 0 0. 9.
 -11 -1 0 0 0 0 0 0 -5 5 0 0. 9.
 15 1 1 2 0 0 0.190097 4.48522 -1.29957 5 1.7768 0. 1
 -15 1 1 2 0 0 -0.190097 -4.48522 1.29957 5 1.7768 0. -1
</event>
<event>
 4 80 1 -1 -1 -1
 11 -1 0 0 0 0 0 0 5 5 0 0. 9.
 -11 -1 0 0 0 0 0 0 -4.97669 4.97669 0 0. 9.
 15 1 1 2 0 0 -0.989753 -2.22153 -3.96465 4.97905 1.7768 0. 1
 -15 1 1 2 0 0 0.989753 2.22153 3.98796 4.99763 1.7768 0. -1
</event>
<event>
 4 80 1 -1 -1 -1
 11 -1 0 0 0 0 0 0 3.18213 3.18213 0 0. 9.
 -11 -1 0 0 0 0 0 0 -5 5 0 0. 9.
 15 1 1 2 0 0 2.14834 1.60029 1.51308 3.55295 1.7768 0. 1
 -15 1 1 2 0 0 -2.14834 -1.60029 -3.33095 4.62918 1.7768 0. -1
</event>
<event>
 4 80 1 -1 -1 -1
 11 -1 0 0 0 0 0 0 5 5 0 0. 9.
 -11 -1 0 0 0 0 0 0 -5 5 0 0. 9.
 15 1 1 2 0 0 -1.76905 0.797172 4.25173 5 1.7768 0. 1
 -15 1 1 2 0 0 1.76905 -0.797172 -4.25173 5 1.7768 0. -1
</event>
<event>
 4 80 1 -1 -1 -1
 11 -1 0 0 0 0 0 0 5 5 0 0. 9.
 -11 -1 0 0 0 0 0 0 -3.78696 3.78696 0 0. 9.
 15 1 1 2 0 0 -1.41463 0.445944 -3.11381 3.87989 1.7768 0. 1
 -15 1 1 2 0 0 1.41463 -0.445944 4.32684 4.90707 1.7768 0. -1
</event>
<event>
 4 80 1 -1 -1 -1
 11 -1 0 0 0 0 0 0 5 5 0 0. 9.
 -11 -1 0 0 0 0 0 0 -5 5 0 0. 9.
 15 1 1 2 0 0 2.76665 3.17549 -2.02588 5 1.7768 0. 1
 -15 1 1 2 0 0 -2.76665 -3.17549 2.02588 5 1.7768 0. -1
</event>
<event>
 4 80 1 -1 -1 -1
 11 -1 0 0 0 0 0 0 5 5 0 0. 9.
 -11 -1 0 0 0 0 0 0 -5 5 0 0. 9.
 15 1 1 2 0 0 -1.45451 -4.10633 -1.69256 5 1.7768 0. 1
 -15 1 1 2 0 0 1.45451 4.10633 1.69256 5 1.7768 0. -1
</event>
<event>
 4 80 1 -1 -1 -1
 11 -1 0 0 0 0 0 0 4.99899 4.99899 0 0. 9.
 -11 -1 0 0 0 0 0 0 -4.9733 4.9733 0 0. 9.
 15 1 1 2 0 0 0.0329213 3.86668 2.6112 4.99284 1.7768 0. 1
 -15 1 1 2 0 0 -0.0329213 -3.86668 -2.58551 4.97945 1.7768 0. -1
</event>
<event>
 4 80 1 -1 -1 -1
 11 -1 0 0 0 0 0 0 4.96029 4.96029 0 0. 9.
 -11 -1 0 0 0 0 0 0 -5 5 0 0. 9.
 15 1 1 2 0 0 1.57341 -1.65112 -4.07475 4.99631 1.7768 0. -1
 -15 1 1 2 0 0 -1.57341 1.65112 4.03503 4.96397 1.7768 0. 1
</event>
<event>
 4 80 1 -1 -1 -1
 11 -1 0 0 0 0 0 0 5 5 0 0. 9.
 -11 -1 0 0 0 0 0 0 -5 5 0 0. 9.
 15 1 1 2 0 0 -1.79068 0.647899 -4.26801 5 1.7768 0. -1
 -15 1 1 2 0 0 1.79068 -0.647899 4.26801 5 1.7768 0. 1
</event>
<event>
 4 80 1 -1 -1 -1
 11 -1 0 0 0 0 0 0 5 5 0 0. 9.
 -11 -1 0 0 0 0 0 0 -5 5 0 0. 9.
 15 1 1 2 0 0 -0.466766 -1.88056 4.25299 5 1.7768 0. 1
 -15 1 1 2 0 0 0.466766 1.88056 -4.25299 5 1.7768 0. -1
</event>
<event>
 4 80 1 -1 -1 -1
 11 -1 0 0 0 0 0 0 4.99998 4.99998 0 0. 9.
 -11 -1 0 0 0 0 0 0 -3.45587 3.45587 0 0. 9.
 15 1 1 2 0 0 -1.02735 0.325219 -2.88956 3.55928 1.7768 0. -1
 -15 1 1 2 0 0 1.02735 -0.325219 4.43367 4.89657 1.7768 0. 1
</event>
<event>
 4 80 1 -1 -1 -1
 11 -1 0 0 0 0 0 0 4.99923 4.99923 0 0. 9.
 -11 -1 0 0 0 0 0 0 -5 5 0 0. 9.
 15 1 1 2 0 0 2.73469 3.18366 2.05489 4.99946 1.7768 0. -1
 -15 1 1 2 0 0 -2.73469 -3.18366 -2.05566 4.99977 1.7768 0. 1
</event>
<event>
 4 80 1 -1 -1 -1
 11 -1 0 0 0 0 0 0 4.96005 4.96005 0 0. 9.
 -11 -1 0 0 0 0 0 0 -5 5 0 0. 9.
 15 1 1 2 0 0 3.15368 -0.0752432 -3.43923 4.99374 1.7768 0. -1
 -15 1 1 2 0 0 -3.15368 0.0752432 3.39928 4.96631 1.7768 0. 1
</event>
<event>
 4 80 1 -1 -1 -1
 11 -1 0 0 0 0 0 0 5 5 0 0. 9.
 -11 -1 0 0 0 0 0 0 -5 5 0 0. 9.
 15 1 1 2 0 0 -0.667718 -1.78259 4.26835 5 1.7768 0. -1
 -15 1 1 2 0 0 0.667718 1.78259 -4.26835 5 1.7768 0. 1
</event>
<event>
 4 80 1 -1 -1 -1
 11 -1 0 0 0 0 0 0 5 5 0 0. 9.
 -11 -1 0 0 0 0 0 0 -5 5 0 0. 9.
 15 1 1 2 0 0 1.44823 4.15943 -1.56336 5 1.7768 0. 1
 -15 1 1 2 0 0 -1.44823 -4.15943 1.56336 5 1.7768 0. -1
</event>
<event>
 4 80 1 -1 -1 -1
 11 -1 0 0 0 0 0 0 4.9999 4.9999 0 0. 9.
 -11 -1 0 0 0 0 0 0 -5 5 0 0. 9.
 15 1 1 2 0 0 -1.17129 -0.599487 -4.48452 4.99999 1.7768 0. -1
 -15 1 1 2 0 0 1.17129 0.599487 4.48442 4.9999 1.7768 0. 1
</event>
<event>
 4 80 1 -1 -1 -1
 11 -1 0 0 0 0 0 0 4.99994 4.99994 0 0. 9.
 -11 -1 0 0 0 0 0 0 -4.97498 4.97498 0 0. 9.
 15 1 1 2 0 0 -3.99641 1.27158 -2.01943 4.98237 1.7768 0. 1
 -15 1 1 2 0 0 3.99641 -1.27158 2.0444 4.99255 1.7768 0. -1
</event>
<event>
 4 80 1 -1 -1 -1
 11 -1 0 0 0 0 0 0 5 5 0 0. 9.
 -11 -1 0 0 0 0 0 0 -4.99371 4.99371 0 0. 9.
 15 1 1 2 0 0 -1.158 4.34606 -1.25447 4.99606 1.7768 0. -1
 -15 1 1 2 0 0 1.158 -4.34606 1.26077 4.99764 1.7768 0. 1
</event>
<event>
 4 80 1 -1 -1 -1
 11 -1 0 0 0 0 0 0 4.99907 4.99907 0 0. 9.
 -11 -1 0 0 0 0 0 0 -5 5 0 0. 9.
 15 1 1 2 0 0 1.868 2.46388 -3.5044 4.99986 1.7768 0. 1
 -15 1 1 2 0 0 -1.868 -2.46388 3.50347 4.99921 1.7768 0. -1
</event>
<event>
 4 80 1 -1 -1 -1
 11 -1 0 0 0 0 0 0 5 5 0 0. 9.
 -11 -1 0 0 0 0 0 0 -5 5 0 0. 9.
 15 1 1 2 0 0 2.94828 0.564318 -3.5821 5 1.7768 0. -1
 -15 1 1 2 0 0 -2.94828 -0.564318 3.5821 5 1.7768 0. 1
</event>
<event>
 4 80 1 -1 -1 -1
 11 -1 0 0 0 0 0 0 5 5 0 0. 9.
 -11 -1 0 0 0 0 0 0 -5 5 0 0. 9.
 15 1 1 2 0 0 0.358255 -2.03717 4.19093 5 1.7768 0. 1
 -15 1 1 2 0 0 -0.358255 2.03717 -4.19093 5 1.7768 0. -1
</event>
<event>
 4 80 1 -1 -1 -1
 11 -1 0 0 0 0 0 0 0.969523 0.969523 0 0. 9.
 -11 -1 0 0 0 0 0 0 -5 5 0 0. 9.
 15 1 1 2 0 0 -1.19214 -0.178948 -1.35575 2.53949 1.7768 0. 1
 -15 1 1 2 0 0 1.19214 0.178948 -2.67473 3.43003 1.7768 0. -1
</event>
<event>
 4 80 1 -1 -1 -1
 11 -1 0 0 0 0 0 0 4.99999 4.99999 0 0. 9.
 -11 -1 0 0 0 0 0 0 -3.9909 3.9909 0 0. 9.
 15 1 1 2 0 0 -2.43501 -3.20966 1.26137 4.58039 1.7768 0. 1
 -15 1 1 2 0 0 2.43501 3.20966 -0.252279 4.4105 1.7768 0. -1
</event>
<event>
 4 80 1 -1 -1 -1
 11 -1 0 0 0 0 0 0 2.8602 2.8602 0 0. 9.
 -11 -1 0 0 0 0 0 0 -4.21607 4.21607 0 0. 9.
 15 1 1 2 0 0 -0.312403 0.0184867 -3.70096 4.11737 1.7768 0. 1
 -15 1 1 2 0 0 0.312403 -0.0184867 2.34508 2.9589 1.7768 0. -1
</event>
<event>
 4 80 1 -1 -1 -1
 11 -1 0 0 0 0 0 0 5 5 0 0. 9.
 -11 -1 0 0 0 0 0 0 -4.9996 4.9996 0 0. 9.
 15 1 1 2 0 0 3.39256 2.95536 1.26378 4.99985 1.7768 0. -1
 -15 1 1 2 0 0 -3.39256 -2.95536 -1.26338 4.99975 1.7768 0. 1
</event>
<event>
 4 80 1 -1 -1 -1
 11 -1 0 0 0 0 0 0 3.70407 3.70407 0 0. 9.
 -11 -1 0 0 0 0 0 0 -5 5 0 0. 9.
 15 1 1 2 0 0 3.90754 0.0617041 -0.951179 4.39718 1.7768 0. -1
 -15 1 1 2 0 0 -3.90754 -0.0617041 -0.344755 4.30689 1.7768 0. 1
</event>
<event>
 4 80 1 -1 -1 -1
 11 -1 0 0 0 0 0 0 5 5 0 0. 9.
 -11 -1 0 0 0 0 0 0 -4.86888 4.86888 0 0. 9.
 15 1 1 2 0 0 1.39023 2.36678 -3.62967 4.88535 1.7768 0. -1
 -15 1 1 2 0 0 -1.39023 -2.36678 3.76079 4.98354 1.7768 0. 1
</event>
<event>
 4 80 1 -1 -1 -1
 11 -1 0 0 0 0 0 0 4.99688 4.99688 0 0. 9.
 -11 -1 0 0 0 0 0 0 -5 5 0 0. 9.
 15 1 1 2 0 0 0.517726 -1.17662 -4.49313 4.99984 1.7768 0. -1
 -15 1 1 2 0 0 -0.517726 1.17662 4.49001 4.99704 1.7768 0. 1
</event>
<event>
 4 80 1 -1 -1 -1
 11 -1 0 0 0 0 0 0 5 5 0 0. 9.
 -11 -1 0 0 0 0 0 0 -4.28218 4.28218 0 0. 9.
 15 1 1 2 0 0 -2.31083 1.50821 3.63038 4.89408 1.7768 0. -1
 -15 1 1 2 0 0 2.31083 -1.50821 -2.91256 4.38809 1.7768 0. 1
</event>
<event>
 4 80 1 -1 -1 -1
 11 -1 0 0 0 0 0 0 4.91117 4.91117 0 0. 9.
 -11 -1 0 0 0 0 0 0 -5 5 0 0. 9.
 15 1 1 2 0 0 -2.0249 1.56162 3.81051 4.92103 1.7768 0. -1
 -15 1 1 2 0 0 2.0249 -1.56162 -3.89934 4.99013 1.7768 0. 1
</event>
<event>
 4 80 1 -1 -1 -1
 11 -1 0 0 0 0 0 0 5 5 0 0. 9.
 -11 -1 0 0 0 0 0 0 -4.95871 4.95871 0 0. 9.
 15 1 1 2 0 0 -3.29029 2.97604 1.41816 4.98515 1.7768 0. -1
 -15 1 1 2 0 0 3.29029 -2.97604 -1.37687 4.97356 1.7768 0. 1
</event>
<event>
 4 80 1 -1 -1 -1
 11 -1 0 0 0 0 0 0 5 5 0 0. 9.
 -11 -1 0 0 0 0 0 0 -5 5 0 0. 9.
 15 1 1 2 0 0 1.66507 -1.24164 -4.18666 5 1.7768 0. -1
 -15 1 1 2 0 0 -1.66507 1.24164 4.18666 5 1.7768 0. 1
</event>
<event>
 4 80 1 -1 -1 -1
 11 -1 0 0 0 0 0 0 4.99972 4.99972 0 0. 9.
 -11 -1 0 0 0 0 0 0 -0.850827 0.850827 0 0. 9.
 15 1 1 2 0 0 0.0537146 -0.649091 3.23709 3.74976 1.7768 0. -1
 -15 1 1 2 0 0 -0.0537146 0.649091 0.911805 2.10079 1.7768 0. 1
</event>
<event>
 4 80 1 -1 -1 -1
 11 -1 0 0 0 0 0 0 5 5 0 0. 9.
 -11 -1 0 0 0 0 0 0 -5 5 0 0. 9.
 15 1 1 2 0 0 -0.790893 -4.15614 1.98575 5 1.7768 0. 1
 -15 1 1 2 0 0 0.790893 4.15614 -1.98575 5 1.7768 0. -1
</event>
<event>
 4 80 1 -1 -1 -1
 11 -1 0 0 0 0 0 0 5 5 0 0. 9.
 -11 -1 0 0 0 0 0 0 -4.99902 4.99902 0 0. 9.
 15 1 1 2 0 0 -0.442432 -4.63453 -0.402959 4.99947 1.7768 0. -1
 -15 1 1 2 0 0 0.442432 4.63453 0.403935 4.99955 1.7768 0. 1
</event>
<event>
 4 80 1 -1 -1 -1
 11 -1 0 0 0 0 0 0 4.99991 4.99991 0 0. 9.
 -11 -1 0 0 0 0 0 0 -5 5 0 0. 9.
 15 1 1 2 0 0 -3.06432 -3.32399 1.18438 4.99995 1.7768 0. 1
 -15 1 1 2 0 0 3.06432 3.32399 -1.18447 4.99997 1.7768 0. -1
</event>
<event>
 4 80 1 -1 -1 -1
 11 -1 0 0 0 0 0 0 5 5 0 0. 9.
 -11 -1 0 0 0 0 0 0 -4.94029 4.94029 0 0. 9.
 15 1 1 2 0 0 -0.901682 1.69757 -4.19502 4.94477 1.7768 0. 1
 -15 1 1 2 0 0 0.901682 -1.69757 4.25473 4.99552 1.7768 0. -1
</event>
<event>
 4 80 1 -1 -1 -1
 11 -1 0 0 0 0 0 0 5 5 0 0. 9.
 -11 -1 0 0 0 0 0 0 -4.94103 4.94103 0 0. 9.
 15 1 1 2 0 0 -3.21059 -3.33025 0.415452 4.9728 1.7768 0. -1
 -15 1 1 2 0 0 3.21059 3.33025 -0.356482 4.96823 1.7768 0. 1
</event>
<event>
 4 80 1 -1 -1 -1
 11 -1 0 0 0 0 0 0 5 5 0 0. 9.
 -11 -1 0 0 0 0 0 0 -4.72906 4.72906 0 0. 9.
 15 1 1 2 0 0 2.70359 1.49485 -3.17393 4.77237 1.7768 0. -1
 -15 1 1 2 0 0 -2.70359 -1.49485 3.44487 4.95669 1.7768 0. 1
</event>
<event>
 4 80 1 -1 -1 -1
 11 -1 0 0 0 0 0 0 5 5 0 0. 9.
 -11 -1 0 0 0 0 0 0 -5 5 0 0. 9.
 15 1 1 2 0 0 -1.58153 -1.44537 -4.15355 5 1.7768 0. 1
 -15 1 1 2 0 0 1.58153 1.44537 4.15355 5 1.7768 0. -1
</event>
<event>
 4 80 1 -1 -1 -1
 11 -1 0 0 0 0 0 0 5 5 0 0. 9.
 -11 -1 0 0 0 0 0 0 -5 5 0 0. 9.
 15 1 1 2 0 0 -2.2199 2.08212 -3.5467 5 1.7768 0. -1
 -15 1 1 2 0 0 2.2199 -2.08212 3.5467 5 1.7768 0. 1
</event>
<event>
 4 80 1 -1 -1 -1
 11 -1 0 0 0 0 0 0 5 5 0 0. 9.
 -11 -1 0 0 0 0 0 0 -5 5 0 0. 9.
 15 1 1 2 0 0 2.78311 3.25132 1.87763 5 1.7768 0. 1
 -15 1 1 2 0 0 -2.78311 -3.25132 -1.87763 5 1.7768 0. -1
</event>
<event>
 4 80 1 -1 -1 -1
 11 -1 0 0 0 0 0 0 4.99969 4.99969 0 0. 9.
 -11 -1 0 0 0 0 0 0 -5 5 0 0. 9.
 15 1 1 2 0 0 -0.537272 3.74503 2.74335 4.99976 1.7768 0. 1
 -15 1 1 2 0 0 0.537272 -3.74503 -2.74366 4.99993 1.7768 0. -1
</event>
<event>
 4 80 1 -1 -1 -1
 11 -1 0 0 0 0 0 0 4.99988 4.99988 0 0. 9.
 -11 -1 0 0 0 0 0 0 -4.99999 4.99999 0 0. 9.
 15 1 1 2 0 0 -4.65267 -0.43628 0.0627471 4.99993 1.7768 0. 1
 -15 1 1 2 0 0 4.65267 0.43628 -0.0628546 4.99994 1.7768 0. -1
</event>
<event>
 4 80 1 -1 -1 -1
 11 -1 0 0 0 0 0 0 5 5 0 0. 9.
 -11 -1 0 0 0 0 0 0 -5 5 0 0. 9.
 15 1 1 2 0 0 -3.94787 1.0739 2.25906 5 1.7768 0. 1
 -15 1 1 2 0 0 3.94787 -1.0739 -2.25906 5 1.7768 0. -1
</event>
<event>
 4 80 1 -1 -1 -1
 11 -1 0 0 0 0 0 0 5 5 0 0. 9.
 -11 -1 0 0 0 0 0 0 -4.87987 4.87987 0 0. 9.
 15 1 1 2 0 0 1.73878 -4.22486 0.667379 4.94732 1.7768 0. -1
 -15 1 1 2 0 0 -1.73878 4.22486 -0.547245 4.93255 1.7768 0. 1
</event>
<event>
 4 80 1 -1 -1 -1
 11 -1 0 0 0 0 0 0 5 5 0 0. 9.
 -11 -1 0 0 0 0 0 0 -5 5 0 0. 9.
 15 1 1 2 0 0 -2.79046 1.93588 3.2106 5 1.7768 0. -1
 -15 1 1 2 0 0 2.79046 -1.93588 -3.2106 5 1.7768 0. 1
</event>
<event>
 4 80 1 -1 -1 -1
 11 -1 0 0 0 0 0 0 5 5 0 0. 9.
 -11 -1 0 0 0 0 0 0 -5 5 0 0. 9.
 15 1 1 2 0 0 -1.17351 -0.364179 -4.50916 5 1.7768 0. -1
 -15 1 1 2 0 0 1.17351 0.364179 4.50916 5 1.7768 0. 1
</event>
<event>
 4 80 1 -1 -1 -1
 11 -1 0 0 0 0 0 0 5 5 0 0. 9.
 -11 -1 0 0 0 0 0 0 -5 5 0 0. 9.
 15 1 1 2 0 0 -2.6558 -0.414749 -3.82322 5 1.7768 0. 1
 -15 1 1 2 0 0 2.6558 0.414749 3.82322 5 1.7768 0. -1
</event>
<event>
 4 80 1 -1 -1 -1
 11 -1 0 0 0 0 0 0 5 5 0 0. 9.
 -11 -1 0 0 0 0 0 0 -4.97199 4.97199 0 0. 9.
 15 1 1 2 0 0 3.83094 1.5726 2.1478 4.99199 1.7768 0. 1
 -15 1 1 2 0 0 -3.83094 -1.5726 -2.11979 4.98 1.7768 0. -1
</event>
<event>
 4 80 1 -1 -1 -1
 11 -1 0 0 0 0 0 0 4.94452 4.94452 0 0. 9.
 -11 -1 0 0 0 0 0 0 -5 5 0 0. 9.
 15 1 1 2 0 0 -3.75788 -2.36844 1.32643 4.96471 1.7768 0. -1
 -15 1 1 2 0 0 3.75788 2.36844 -1.38191 4.97982 1.7768 0. 1
</event>
<event>
 4 80 1 -1 -1 -1
 11 -1 0 0 0 0 0 0 4.99999 4.99999 0 0. 9.
 -11 -1 0 0 0 0 0 0 -5 5 0 0. 9.
 15 1 1 2 0 0 -4.37137 -1.64546 0.160669 5 1.7768 0. -1
 -15 1 1 2 0 0 4.37137 1.64546 -0.160674 5 1.7768 0. 1
</event>
<event>
 4 80 1 -1 -1 -1
 11 -1 0 0 0 0 0 0 5 5 0 0. 9.
 -11 -1 0 0 0 0 0 0 -4.99997 4.99997 0 0. 9.
 15 1 1 2 0 0 -4.38735 1.54968 0.437932 4.99999 1.7768 0. -1
 -15 1 1 2 0 0 4.38735 -1.54968 -0.437903 4.99998 1.7768 0. 1
</event>
<event>
 4 80 1 -1 -1 -1
 11 -1 0 0 0 0 0 0 4.97822 4.97822 0 0. 9.
 -11 -1 0 0 0 0 0 0 -5 5 0 0. 9.
 15 1 1 2 0 0 1.70748 0.0805312 4.32633 4.97964 1.7768 0. 1
 -15 1 1 2 0 0 -1.70748 -0.0805312 -4.34811 4.99858 1.7768 0. -1
</event>
<event>
 4 80 1 -1 -1 -1
 11 -1 0 0 0 0 0 0 4.94718 4.94718 0 0. 9.
 -11 -1 0 0 0 0 0 0 -5 5 0 0. 9.
 15 1 1 2 0 0 2.66724 3.02346 -2.33353 4.98584 1.7768 0. 1
 -15 1 1 2 0 0 -2.66724 -3.02346 2.28071 4.96134 1.7768 0. -1
</event>
<event>
 4 80 1 -1 -1 -1
 11 -1 0 0 0 0 0 0 5 5 0 0. 9.
 -11 -1 0 0 0 0 0 0 -4.99968 4.99968 0 0. 9.
 15 1 1 2 0 0 -1.74421 -1.84133 3.92545 4.99996 1.7768 0. -1
 -15 1 1 2 0 0 1.74421 1.84133 -3.92513 4.99971 1.7768 0. 1
</event>
<event>
 4 80 1 -1 -1 -1
 11 -1 0 0 0 0 0 0 5 5 0 0. 9.
 -11 -1 0 0 0 0 0 0 -2.69291 2.69291 0 0. 9.
 15 1 1 2 0 0 0.501175 1.94708 3.77721 4.63329 1.7768 0. 1
 -15 1 1 2 0 0 -0.501175 -1.94708 -1.47013 3.05962 1.7768 0. -1
</event>
<event>
 4 80 1 -1 -1 -1
 11 -1 0 0 0 0 0 0 4.98961 4.98961 0 0. 9.
 -11 -1 0 0 0 0 0 0 -4.73787 4.73787 0 0. 9.
 15 1 1 2 0 0 4.04438 1.74627 1.16349 4.89059 1.7768 0. -1
 -15 1 1 2 0 0 -4.04438 -1.74627 -0.91176 4.83689 1.7768 0. 1
</event>
<event>
 4 80 1 -1 -1 -1
 11 -1 0 0 0 0 0 0 5 5 0 0. 9.
 -11 -1 0 0 0 0 0 0 -4.06238 4.06238 0 0. 9.
 15 1 1 2 0 0 3.3133 0.66574 -1.93849 4.28213 1.7768 0. 1
 -15 1 1 2 0 0 -3.3133 -0.66574 2.87611 4.78026 1.7768 0. -1
</event>
<event>
 4 80 1 -1 -1 -1
 11 -1 0 0 0 0 0 0 0.750987 0.750987 0 0. 9.
 -11 -1 0 0 0 0 0 0 -5 5 0 0. 9.
 15 1 1 2 0 0 0.526911 -0.155452 -2.93103 3.47138 1.7768 0. 1
 -15 1 1 2 0 0 -0.526911 0.155452 -1.31798 2.2796 1.7768 0. -1
</event>
<event>
 4 80 1 -1 -1 -1
 11 -1 0 0 0 0 0 0 5 5 0 0. 9.
 -11 -1 0 0 0 0 0 0 -4.99994 4.99994 0 0. 9.
 15 1 1 2 0 0 -0.195341 -4.57793 0.920027 4.99997 1.7768 0. 1
 -15 1 1 2 0 0 0.195341 4.57793 -0.919962 4.99996 1.7768 0. -1
</event>
<event>
 4 80 1 -1 -1 -1
 11 -1 0 0 0 0 0 0 5 5 0 0. 9.
 -11 -1 0 0 0 0 0 0 -5 5 0 0. 9.
 15 1 1 2 0 0 0.0419805 -0.469813 -4.64971 5 1.7768 0. -1
 -15 1 1 2 0 0 -0.0419805 0.469813 4.64971 5 1.7768 0. 1
</event>
<event>
 4 80 1 -1 -1 -1
 11 -1 0 0 0 0 0 0 5 5 0 0. 9.
 -11 -1 0 0 0 0 0 0 -4.92983 4.92983 0 0. 9.
 15 1 1 2 0 0 -3.09034 -2.394 2.52713 4.98253 1.7768 0. -1
 -15 1 1 2 0 0 3.09034 2.394 -2.45696 4.94731 1.7768 0. 1
</event>
<event>
 4 80 1 -1 -1 -1
 11 -1 0 0 0 0 0 0 5 5 0 0. 9.
 -11 -1 0 0 0 0 0 0 -4.95687 4.95687 0 0. 9.
 15 1 1 2 0 0 -3.88936 -2.50536 -0.45031 4.97639 1.7768 0. -1
 -15 1 1 2 0 0 3.88936 2.50536 0.493443 4.98048 1.7768 0. 1
</event>
<event>
 4 80 1 -1 -1 -1
 11 -1 0 0 0 0 0 0 5 5 0 0. 9.
 -11 -1 0 0 0 0 0 0 -4.85409 4.85409 0 0. 9.
 15 1 1 2 0 0 3.02528 -1.02828 3.37529 4.97594 1.7768 0. -1
 -15 1 1 2 0 0 -3.02528 1.02828 -3.22938 4.87815 1.7768 0. 1
</event>
<event>
 4 80 1 -1 -1 -1
 11 -1 0 0 0 0 0 0 4.73774 4.73774 0 0. 9.
 -11 -1 0 0 0 0 0 0 -4.98773 4.98773 0 0. 9.
 15 1 1 2 0 0 -3.58371 -0.427506 -2.85482 4.9329 1.7768 0. -1
 -15 1 1 2 0 0 3.58371 0.427506 2.60483 4.79256 1.7768 0. 1
</event>
<event>
 4 80 1 -1 -1 -1
 11 -1 0 0 0 0 0 0 2.00737 2.00737 0 0. 9.
 -11 -1 0 0 0 0 0 0 -5 5 0 0. 9.
 15 1 1 2 0 0 0.337484 1.68423 0.695706 2.56754 1.7768 0. 1
 -15 1 1 2 0 0 -0.337484 -1.68423 -3.68833 4.43983 1.7768 0. -1
</event>
<event>
 4 80 1 -1 -1 -1
 11 -1 0 0 0 0 0 0 4.9983 4.9983 0 0. 9.
 -11 -1 0 0 0 0 0 0 -5 5 0 0. 9.
 15 1 1 2 0 0 3.70908 1.10128 2.61902 4.99871 1.7768 0. -1
 -15 1 1 2 0 0 -3.70908 -1.10128 -2.62072 4.9996 1.7768 0. 1
</event>
<event>
 4 80 1 -1 -1 -1
 11 -1 0 0 0 0 0 0 5 5 0 0. 9.
 -11 -1 0 0 0 0 0 0 -4.99996 4.99996 0 0. 9.
 15 1 1 2 0 0 -3.64107 2.74824 -1.01578 4.99997 1.7768 0. -1
 -15 1 1 2 0 0 3.64107 -2.74824 1.01582 4.99998 1.7768 0. 1
</event>
<event>
 4 80 1 -1 -1 -1
 11 -1 0 0 0 0 0 0 2.26504 2.26504 0 0. 9.
 -11 -1 0 0 0 0 0 0 -4.82954 4.82954 0 0. 9.
 15 1 1 2 0 0 1.83971 2.0921 -1.43394 3.60213 1.7768 0. -1
 -15 1 1 2 0 0 -1.83971 -2.0921 -1.13056 3.49246 1.7768 0. 1
</event>
<event>
 4 80 1 -1 -1 -1
 11 -1 0 0 0 0 0 0 4.99868 4.99868 0 0. 9.
 -11 -1 0 0 0 0 0 0 -4.99977 4.99977 0 0. 9.
 15 1 1 2 0 0 -2.64619 -3.42389 -1.76384 4.99942 1.7768 0. -1
 -15 1 1 2 0 0 2.64619 3.42389 1.76275 4.99904 1.7768 0. 1
</event>
<event>
 4 80 1 -1 -1 -1
 11 -1 0 0 0 0 0 0 5 5 0 0. 9.
 -11 -1 0 0 0 0 0 0 -4.9958 4.9958 0 0. 9.
 15 1 1 2 0 0 3.15248 3.27415 -1.07637 4.99744 1.7768 0. 1
 -15 1 1 2 0 0 -3.15248 -3.27415 1.08058 4.99835 1.7768 0. -1
</event>
<event>
 4 80 1 -1 -1 -1
 11 -1 0 0 0 0 0 0 5 5 0 0. 9.
 -11 -1 0 0 0 0 0 0 -5 5 0 0. 9.
 15 1 1 2 0 0 -3.04364 1.74369 3.08838 5 1.7768 0. -1
 -15 1 1 2 0 0 3.04364 -1.74369 -3.08838 5 1.7768 0. 1
</event>
<event>
 4 80 1 -1 -1 -1
 11 -1 0 0 0 0 0 0 4.99852 4.99852 0 0. 9.
 -11 -1 0 0 0 0 0 0 -3.90489 3.90489 0 0. 9.
 15 1 1 2 0 0 -3.45407 1.4794 -0.961841 4.26639 1.7768 0. -1
 -15 1 1 2 0 0 3.45407 -1.4794 2.05547 4.63702 1.7768 0. 1
</event>
<event>
 4 80 1 -1 -1 -1
 11 -1 0 0 0 0 0 0 5 5 0 0. 9.
 -11 -1 0 0 0 0 0 0 -4.9593 4.9593 0 0. 9.
 15 1 1 2 0 0 -1.20127 -1.41431 4.286 4.99708 1.7768 0. 1
 -15 1 1 2 0 0 1.20127 1.41431 -4.2453 4.96222 1.7768 0. -1
</event>
<event>
 4 80 1 -1 -1 -1
 11 -1 0 0 0 0 0 0 5 5 0 0. 9.
 -11 -1 0 0 0 0 0 0 -4.689 4.689 0 0. 9.
 15 1 1 2 0 0 1.41577 -3.82069 2.07617 4.90615 1.7768 0. -1
 -15 1 1 2 0 0 -1.41577 3.82069 -1.76517 4.78285 1.7768 0. 1
</event>
<event>
 4 80 1 -1 -1 -1
 11 -1 0 0 0 0 0 0 5 5 0 0. 9.
 -11 -1 0 0 0 0 0 0 -4.99343 4.99343 0 0. 9.
 15 1 1 2 0 0 0.560102 -4.14009 2.09024 4.99809 1.7768 0. 1
 -15 1 1 2 0 0 -0.560102 4.14009 -2.08367 4.99534 1.7768 0. -1
</event>
<event>
 4 80 1 -1 -1 -1
 11 -1 0 0 0 0 0 0 5 5 0 0. 9.
 -11 -1 0 0 0 0 0 0 -5 5 0 0. 9.
 15 1 1 2 0 0 -4.30395 -1.51219 1.01565 5 1.7768 0. 1
 -15 1 1 2 0 0 4.30395 1.51219 -1.01564 5 1.7768 0. -1
</event>
<event>
 4 80 1 -1 -1 -1
 11 -1 0 0 0 0 0 0 4.99997 4.99997 0 0. 9.
 -11 -1 0 0 0 0 0 0 -4.90153 4.90153 0 0. 9.
 15 1 1 2 0 0 -1.93392 0.101348 4.2446 4.99246 1.7768 0. -1
 -15 1 1 2 0 0 1.93392 -0.101348 -4.14616 4.90904 1.7768 0. 1
</event>
<event>
 4 80 1 -1 -1 -1
 11 -1 0 0 0 0 0 0 4.82171 4.82171 0 0. 9.
 -11 -1 0 0 0 0 0 0 -4.48576 4.48576 0 0. 9.
 15 1 1 2 0 0 2.36694 3.5829 -0.0103235 4.6473 1.7768 0. -1
 -15 1 1 2 0 0 -2.36694 -3.5829 0.346266 4.66017 1.7768 0. 1
</event>
<event>
 4 80 1 -1 -1 -1
 11 -1 0 0 0 0 0 0 4.99994 4.99994 0 0. 9.
 -11 -1 0 0 0 0 0 0 -5 5 0 0. 9.
 15 1 1 2 0 0 -1.26404 3.79055 2.424 4.99995 1.7768 0. 1
 -15 1 1 2 0 0 1.26404 -3.79055 -2.42406 4.99998 1.7768 0. -1
</event>
<event>
 4 80 1 -1 -1 -1
 11 -1 0 0 0 0 0 0 4.99999 4.99999 0 0. 9.
 -11 -1 0 0 0 0 0 0 -4.62269 4.62269 0 0. 9.
 15 1 1 2 0 0 0.538368 -4.33309 -0.75557 4.77432 1.7768 0. -1
 -15 1 1 2 0 0 -0.538368 4.33309 1.13287 4.84836 1.7768 0. 1
</event>
<event>
 4 80 1 -1 -1 -1
 11 -1 0 0 0 0 0 0 4.91741 4.91741 0 0. 9.
 -11 -1 0 0 0 0 0 0 -5 5 0 0. 9.
 15 1 1 2 0 0 -1.63594 -0.450107 -4.34847 4.99457 1.7768 0. -1
 -15 1 1 2 0 0 1.63594 0.450107 4.26588 4.92284 1.7768 0. 1
</event>
<event>
 4 80 1 -1 -1 -1
 11 -1 0 0 0 0 0 0 5 5 0 0. 9.
 -11 -1 0 0 0 0 0 0 -5 5 0 0. 9.
 15 1 1 2 0 0 -0.261911 2.03214 4.20049 5 1.7768 0. -1
 -15 1 1 2 0 0 0.261911 -2.03214 -4.20049 5 1.7768 0. 1
</event>
<event>
 4 80 1 -1 -1 -1
 11 -1 0 0 0 0 0 0 4.952 4.952 0 0. 9.
 -11 -1 0 0 0 0 0 0 -5 5 0 0. 9.
 15 1 1 2 0 0 -2.27295 0.056234 -4.07779 4.99555 1.7768 0. 1
 -15 1 1 2 0 0 2.27295 -0.056234 4.02979 4.95645 1.7768 0. -1
</event>
<event>
 4 80 1 -1 -1 -1
 11 -1 0 0 0 0 0 0 4.99999 4.99999 0 0. 9.
 -11 -1 0 0 0 0 0 0 -4.05911 4.05911 0 0. 9.
 15 1 1 2 0 0 -1.26943 2.97162 -2.13125 4.25934 1.7768 0. 1
 -15 1 1 2 0 0 1.26943 -2.97162 3.07213 4.79976 1.7768 0. -1
</event>
<event>
 4 80 1 -1 -1 -1
 11 -1 0 0 0 0 0 0 4.44932 4.44932 0 0. 9.
 -11 -1 0 0 0 0 0 0 -5 5 0 0. 9.
 15 1 1 2 0 0 -0.451497 -0.409257 -4.60908 4.97722 1.7768 0. 1
 -15 1 1 2 0 0 0.451497 0.409257 4.0584 4.4721 1.7768 0. -1
</event>
<event>
 4 80 1 -1 -1 -1
 11 -1 0 0 0 0 0 0 2.21664 2.21664 0 0. 9.
 -11 -1 0 0 0 0 0 0 -5 5 0 0. 9.
 15 1 1 2 0 0 -0.657506 2.65917 -2.09575 3.87987 1.7768 0. 1
 -15 1 1 2 0 0 0.657506 -2.65917 -0.687611 3.33677 1.7768 0. -1
</event>
<event>
 4 80 1 -1 -1 -1
 11 -1 0 0 0 0 0 0 5 5 0 0. 9.
 -11 -1 0 0 0 0 0 0 -4.99988 4.99988 0 0. 9.
 15 1 1 2 0 0 0.28319 -3.16144 3.43033 4.99998 1.7768 0. 1
 -15 1 1 2 0 0 -0.28319 3.16144 -3.43021 4.9999 1.7768 0. -1
</event>
<event>
 4 80 1 -1 -1 -1
 11 -1 0 0 0 0 0 0 4.6725 4.6725 0 0. 9.
 -11 -1 0 0 0 0 0 0 -5 5 0 0. 9.
 15 1 1 2 0 0 -3.92678 -0.175192 -2.34548 4.91012 1.7768 0. -1
 -15 1 1 2 0 0 3.92678 0.175192 2.01798 4.76238 1.7768 0. 1
</event>
<event>
 4 80 1 -1 -1 -1
 11 -1 0 0 0 0 0 0 3.83059 3.83059 0 0. 9.
 -11 -1 0 0 0 0 0 0 -0.975793 0.975793 0 0. 9.
 15 1 1 2 0 0 0.0708268 0.437865 2.19705 2.86034 1.7768 0. 1
 -15 1 1 2 0 0 -0.0708268 -0.437865 0.65774 1.94605 1.7768 0. -1
</event>
<event>
 4 80 1 -1 -1 -1
 11 -1 0 0 0 0 0 0 4.99984 4.99984 0 0. 9.
 -11 -1 0 0 0 0 0 0 -4.99999 4.99999 0 0. 9.
 15 1 1 2 0 0 -2.25116 -2.16463 3.47671 4.99986 1.7768 0. 1
 -15 1 1 2 0 0 2.25116 2.16463 -3.47687 4.99997 1.7768 0. -1
</event>
<event>
 4 80 1 -1 -1 -1
 11 -1 0 0 0 0 0 0 5 5 0 0. 9.
 -11 -1 0 0 0 0 0 0 -4.9985 4.9985 0 0. 9.
 15 1 1 2 0 0 0.0629156 2.84346 -3.70675 4.9987 1.7768 0. -1
 -15 1 1 2 0 0 -0.0629156 -2.84346 3.70825 4.99981 1.7768 0. 1
</event>
<event>
 4 80 1 -1 -1 -1
 11 -1 0 0 0 0 0 0 5 5 0 0. 9.
 -11 -1 0 0 0 0 0 0 -4.99999 4.99999 0 0. 9.
 15 1 1 2 0 0 3.69592 1.59573 -2.37403 4.99999 1.7768 0. 1
 -15 1 1 2 0 0 -3.69592 -1.59573 2.37404 5 1.7768 0. -1
</event>
<event>
 4 80 1 -1 -1 -1
 11 -1 0 0 0 0 0 0 4.99531 4.99531 0 0. 9.
 -11 -1 0 0 0 0 0 0 -5 5 0 0. 9.
 15 1 1 2 0 0 -3.19962 -2.83352 -1.88714 4.99854 1.7768 0. -1
 -15 1 1 2 0 0 3.19962 2.83352 1.88245 4.99677 1.7768 0. 1
</event>
<event>
 4 80 1 -1 -1 -1
 11 -1 0 0 0 0 0 0 5 5 0 0. 9.
 -11 -1 0 0 0 0 0 0 -4.73451 4.73451 0 0. 9.
 15 1 1 2 0 0 -1.60537 3.17454 -2.67185 4.79076 1.7768 0. 1
 -15 1 1 2 0 0 1.60537 -3.17454 2.93735 4.94374 1.7768 0. -1
</event>
<event>
 4 80 1 -1 -1 -1
 11 -1 0 0 0 0 0 0 5 5 0 0. 9.
 -11 -1 0 0 0 0 0 0 -4.88376 4.88376 0 0. 9.
 15 1 1 2 0 0 2.11829 2.32015 -3.31715 4.90219 1.7768 0. -1
 -15 1 1 2 0 0 -2.11829 -2.32015 3.43339 4.98158 1.7768 0. 1
</event>
<event>
 4 80 1 -1 -1 -1
 11 -1 0 0 0 0 0 0 5 5 0 0. 9.
 -11 -1 0 0 0 0 0 0 -5 5 0 0. 9.
 15 1 1 2 0 0 0.608745 3.47669 3.06338 5 1.7768 0. -1
 -15 1 1 2 0 0 -0.608745 -3.47669 -3.06338 5 1.7768 0. 1
</event>
<event>
 4 80 1 -1 -1 -1
 11 -1 0 0 0 0 0 0 5 5 0 0. 9.
 -11 -1 0 0 0 0 0 0 -4.98771 4.98771 0 0. 9.
 15 1 1 2 0 0 -1.8444 -2.55842 3.44613 4.99809 1.7768 0. -1
 -15 1 1 2 0 0 1.8444 2.55842 -3.43384 4.98963 1.7768 0. 1
</event>
<event>
 4 80 1 -1 -1 -1
 11 -1 0 0 0 0 0 0 5 5 0 0. 9.
 -11 -1 0 0 0 0 0 0 -5 5 0 0. 9.
 15 1 1 2 0 0 0.166317 2.73069 3.78919 5 1.7768 0. 1
 -15 1 1 2 0 0 -0.166317 -2.73069 -3.78919 5 1.7768 0. -1
</event>
<event>
 4 80 1 -1 -1 -1
 11 -1 0 0 0 0 0 0 4.99999 4.99999 0 0. 9.
 -11 -1 0 0 0 0 0 0 -2.76409 2.76409 0 0. 9.
 15 1 1 2 0 0 0.829164 -2.78881 2.666 4.32785 1.7768 0. -1
 -15 1 1 2 0 0 -0.829164 2.78881 -0.430091 3.43623 1.7768 0. 1
</event>
<event>
 4 80 1 -1 -1 -1
 11 -1 0 0 0 0 0 0 4.99999 4.99999 0 0. 9.
 -11 -1 0 0 0 0 0 0 -3.29165 3.29165 0 0. 9.
 15 1 1 2 0 0 2.92915 1.85584 2.00873 4.3837 1.7768 0. 1
 -15 1 1 2 0 0 -2.92915 -1.85584 -0.300397 3.90795 1.7768 0. -1
</event>
<event>
 4 80 1 -1 -1 -1
 11 -1 0 0 0 0 0 0 4.92513 4.92513 0 0. 9.
 -11 -1 0 0 0 0 0 0 -5 5 0 0. 9.
 15 1 1 2 0 0 4.10495 2.00648 0.731612 4.95676 1.7768 0. 1
 -15 1 1 2 0 0 -4.10495 -2.00648 -0.80648 4.96837 1.7768 0. -1
</event>
<event>
 4 80 1 -1 -1 -1
 11 -1 0 0 0 0 0 0 2.92707 2.92707 0 0. 9.
 -11 -1 0 0 0 0 0 0 -4.75985 4.75985 0 0. 9.
 15 1 1 2 0 0 1.26429 -0.631752 -3.96699 4.57081 1.7768 0. -1
 -15 1 1 2 0 0 -1.26429 0.631752 2.13421 3.11611 1.7768 0. 1
</event>
<event>
 4 80 1 -1 -1 -1
 11 -1 0 0 0 0 0 0 5 5 0 0. 9.
 -11 -1 0 0 0 0 0 0 -2.25949 2.25949 0 0. 9.
 15 1 1 2 0 0 -0.996888 1.96489 3.32758 4.36865 1.7768 0. 1
 -15 1 1 2 0 0 0.996888 -1.96489 -0.587075 2.89084 1.7768 0. -1
</event>
<event>
 4 80 1 -1 -1 -1
 11 -1 0 0 0 0 0 0 5 5 0 0. 9.
 -11 -1 0 0 0 0 0 0 -4.99923 4.99923 0 0. 9.
 15 1 1 2 0 0 2.20523 4.02675 -0.871801 4.99955 1.7768 0. 1
 -15 1 1 2 0 0 -2.20523 -4.02675 0.872568 4.99968 1.7768 0. -1
</event>
<event>
 4 80 1 -1 -1 -1
 11 -1 0 0 0 0 0 0 5 5 0 0. 9.
 -11 -1 0 0 0 0 0 0 -3.94578 3.94578 0 0. 9.
 15 1 1 2 0 0 -2.39786 3.20528 -0.218121 4.38507 1.7768 0. -1
 -15 1 1 2 0 0 2.39786 -3.20528 1.27234 4.56071 1.7768 0. 1
</event>
<event>
 4 80 1 -1 -1 -1
 11 -1 0 0 0 0 0 0 5 5 0 0. 9.
 -11 -1 0 0 0 0 0 0 -5 5 0 0. 9.
 15 1 1 2 0 0 -3.52907 1.50747 2.66749 5 1.7768 0. -1
 -15 1 1 2 0 0 3.52907 -1.50747 -2.66749 5 1.7768 0. 1
</event>
<event>
 4 80 1 -1 -1 -1
 11 -1 0 0 0 0 0 0 5 5 0 0. 9.
 -11 -1 0 0 0 0 0 0 -4.99993 4.99993 0 0. 9.
 15 1 1 2 0 0 3.14639 2.73836 -2.10793 4.99995 1.7768 0. 1
 -15 1 1 2 0 0 -3.14639 -2.73836 2.108 4.99998 1.7768 0. -1
</event>
<event>
 4 80 1 -1 -1 -1
 11 -1 0 0 0 0 0 0 5 5 0 0. 9.
 -11 -1 0 0 0 0 0 0 -5 5 0 0. 9.
 15 1 1 2 0 0 2.03351 3.66742 -2.06328 5 1.7768 0. 1
 -15 1 1 2 0 0 -2.03351 -3.66742 2.06328 5 1.7768 0. -1
</event>
<event>
 4 80 1 -1 -1 -1
 11 -1 0 0 0 0 0 0 4.89211 4.89211 0 0. 9.
 -11 -1 0 0 0 0 0 0 -4.99992 4.99992 0 0. 9.
 15 1 1 2 0 0 4.35566 0.0352588 -1.58023 4.96265 1.7768 0. 1
 -15 1 1 2 0 0 -4.35566 -0.0352588 1.47241 4.92938 1.7768 0. -1
</event>
<event>
 4 80 1 -1 -1 -1
 11 -1 0 0 0 0 0 0 5 5 0 0. 9.
 -11 -1 0 0 0 0 0 0 -5 5 0 0. 9.
 15 1 1 2 0 0 -2.70662 0.648621 -3.75443 5 1.7768 0. 1
 -15 1 1 2 0 0 2.70662 -0.648621 3.75443 5 1.7768 0. -1
</event>
<event>
 4 80 1 -1 -1 -1
 11 -1 0 0 0 0 0 0 1.27382 1.27382 0 0. 9.
 -11 -1 0 0 0 0 0 0 -5 5 0 0. 9.
 15 1 1 2 0 0 0.428148 1.67152 -1.26172 2.77974 1.7768 0. -1
 -15 1 1 2 0 0 -0.428148 -1.67152 -2.46446 3.49408 1.7768 0. 1
</event>
<event>
 4 80 1 -1 -1 -1
 11 -1 0 0 0 0 0 0 2.71268 2.71268 0 0. 9.
 -11 -1 0 0 0 0 0 0 -4.99248 4.99248 0 0. 9.
 15 1 1 2 0 0 -1.55731 0.785058 1.69706 3.01318 1.7768 0. -1
 -15 1 1 2 0 0 1.55731 -0.785058 -3.97686 4.69198 1.7768 0. 1
</event>
<event>
 4 80 1 -1 -1 -1
 11 -1 0 0 0 0 0 0 5 5 0 0. 9.
 -11 -1 0 0 0 0 0 0 -4.85706 4.85706 0 0. 9.
 15 1 1 2 0 0 1.339 2.42705 3.73847 4.98171 1.7768 0. -1
 -15 1 1 2 0 0 -1.339 -2.42705 -3.59553 4.87536 1.7768 0. 1
</event>
<event>
 4 80 1 -1 -1 -1
 11 -1 0 0 0 0 0 0 4.99999 4.99999 0 0. 9.
 -11 -1 0 0 0 0 0 0 -5 5 0 0. 9.
 15 1 1 2 0 0 -1.91441 0.0451484 -4.26324 5 1.7768 0. -1
 -15 1 1 2 0 0 1.91441 -0.0451484 4.26323 4.99999 1.7768 0. 1
</event>
<event>
 4 80 1 -1 -1 -1
 11 -1 0 0 0 0 0 0 4.94425 4.94425 0 0. 9.
 -11 -1 0 0 0 0 0 0 -5 5 0 0. 9.
 15 1 1 2 0 0 0.715197 2.60122 3.75182 4.95093 1.7768 0. 1
 -15 1 1 2 0 0 -0.715197 -2.60122 -3.80757 4.99331 1.7768 0. -1
</event>
<event>
 4 80 1 -1 -1 -1
 11 -1 0 0 0 0 0 0 4.99939 4.99939 0 0. 9.
 -11 -1 0 0 0 0 0 0 -5 5 0 0. 9.
 15 1 1 2 0 0 2.55976 2.8922 -2.63128 4.99986 1.7768 0. -1
 -15 1 1 2 0 0 -2.55976 -2.8922 2.63068 4.99954 1.7768 0. 1
</event>
<event>
 4 80 1 -1 -1 -1
 11 -1 0 0 0 0 0 0 4.99976 4.99976 0 0. 9.
 -11 -1 0 0 0 0 0 0 -5 5 0 0. 9.
 15 1 1 2 0 0 -0.176821 1.51406 -4.41797 4.99999 1.7768 0. 1
 -15 1 1 2 0 0 0.176821 -1.51406 4.41773 4.99977 1.7768 0. -1
</event>
<event>
 4 80 1 -1 -1 -1
 11 -1 0 0 0 0 0 0 3.81311 3.81311 0 0. 9.
 -11 -1 0 0 0 0 0 0 -5 5 0 0. 9.
 15 1 1 2 0 0 -3.80374 1.19508 -0.486954 4.39221 1.7768 0. -1
 -15 1 1 2 0 0 3.80374 -1.19508 -0.699939 4.4209 1.7768 0. 1
</event>
<event>
 4 80 1 -1 -1 -1
 11 -1 0 0 0 0 0 0 5 5 0 0. 9.
 -11 -1 0 0 0 0 0 0 -5 5 0 0. 9.
 15 1 1 2 0 0 3.89006 -1.72802 1.92967 5 1.7768 0. 1
 -15 1 1 2 0 0 -3.89006 1.72802 -1.92967 5 1.7768 0. -1
</event>
<event>
 4 80 1 -1 -1 -1
 11 -1 0 0 0 0 0 0 4.68325 4.68325 0 0. 9.
 -11 -1 0 0 0 0 0 0 -4.99397 4.99397 0 0. 9.
 15 1 1 2 0 0 0.194005 1.22763 4.16955 4.69975 1.7768 0. 1
 -15 1 1 2 0 0 -0.194005 -1.22763 -4.48027 4.97747 1.7768 0. -1
</event>
<event>
 4 80 1 -1 -1 -1
 11 -1 0 0 0 0 0 0 4.99665 4.99665 0 0. 9.
 -11 -1 0 0 0 0 0 0 -5 5 0 0. 9.
 15 1 1 2 0 0 -2.06233 1.39152 -3.95591 4.99965 1.7768 0. 1
 -15 1 1 2 0 0 2.06233 -1.39152 3.95256 4.997 1.7768 0. -1
</event>
<event>
 4 80 1 -1 -1 -1
 11 -1 0 0 0 0 0 0 5 5 0 0. 9.
 -11 -1 0 0 0 0 0 0 -5 5 0 0. 9.
 15 1 1 2 0 0 3.32852 3.16151 0.876391 5 1.7768 0. 1
 -15 1 1 2 0 0 -3.32852 -3.16151 -0.876391 5 1.7768 0. -1
</event>
<event>
 4 80 1 -1 -1 -1
 11 -1 0 0 0 0 0 0 4.57525 4.57525 0 0. 9.
 -11 -1 0 0 0 0 0 0 -4.93875 4.93875 0 0. 9.
 15 1 1 2 0 0 -0.110653 0.433618 -4.57107 4.9247 1.7768 0. -1
 -15 1 1 2 0 0 0.110653 -0.433618 4.20757 4.5893 1.7768 0. 1
</event>
<event>
 4 80 1 -1 -1 -1
 11 -1 0 0 0 0 0 0 1.84237 1.84237 0 0. 9.
 -11 -1 0 0 0 0 0 0 -5 5 0 0. 9.
 15 1 1 2 0 0 0.871249 0.478144 -4.11601 4.59205 1.7768 0. 1
 -15 1 1 2 0 0 -0.871249 -0.478144 0.958374 2.25031 1.7768 0. -1
</event>
<event>
 4 80 1 -1 -1 -1
 11 -1 0 0 0 0 0 0 2.33367 2.33367 0 0. 9.
 -11 -1 0 0 0 0 0 0 -5 5 0 0. 9.
 15 1 1 2 0 0 -0.828422 1.4797 1.215 2.74039 1.7768 0. 1
 -15 1 1 2 0 0 0.828422 -1.4797 -3.88133 4.59328 1.7768 0. -1
</event>
<event>
 4 80 1 -1 -1 -1
 11 -1 0 0 0 0 0 0 5 5 0 0. 9.
 -11 -1 0 0 0 0 0 0 -5 5 0 0. 9.
 15 1 1 2 0 0 -4.3326 1.14117 1.32988 5 1.7768 0. 1
 -15 1 1 2 0 0 4.3326 -1.14117 -1.32988 5 1.7768 0. -1
</event>
<event>
 4 80 1 -1 -1 -1
 11 -1 0 0 0 0 0 0 5 5 0 0. 9.
 -11 -1 0 0 0 0 0 0 -1.12113 1.12113 0 0. 9.
 15 1 1 2 0 0 1.01852 -0.867434 2.9881 3.72509 1.7768 0. 1
 -15 1 1 2 0 0 -1.01852 0.867434 0.890762 2.39604 1.7768 0. -1
</event>
<event>
 4 80 1 -1 -1 -1
 11 -1 0 0 0 0 0 0 4.99942 4.99942 0 0. 9.
 -11 -1 0 0 0 0 0 0 -5 5 0 0. 9.
 15 1 1 2 0 0 -1.49408 0.290141 4.41818 4.99945 1.7768 0. 1
 -15 1 1 2 0 0 1.49408 -0.290141 -4.41876 4.99997 1.7768 0. -1
</event>
<event>
 4 80 1 -1 -1 -1
 11 -1 0 0 0 0 0 0 4.90881 4.90881 0 0. 9.
 -11 -1 0 0 0 0 0 0 -5 5 0 0. 9.
 15 1 1 2 0 0 -0.662783 -4.46844 -1.03566 4.96352 1.7768 0. 1
 -15 1 1 2 0 0 0.662783 4.46844 0.944475 4.9453 1.7768 0. -1
</event>
<event>
 4 80 1 -1 -1 -1
 11 -1 0 0 0 0 0 0 4.98028 4.98028 0 0. 9.
 -11 -1 0 0 0 0 0 0 -5 5 0 0. 9.
 15 1 1 2 0 0 -2.70772 -2.90944 2.42881 4.98532 1.7768 0. -1
 -15 1 1 2 0 0 2.70772 2.90944 -2.44853 4.99496 1.7768 0. 1
</event>
<event>
 4 80 1 -1 -1 -1
 11 -1 0 0 0 0 0 0 5 5 0 0. 9.
 -11 -1 0 0 0 0 0 0 -5 5 0 0. 9.
 15 1 1 2 0 0 -1.90648 -4.20828 0.705647 5 1.7768 0. 1
 -15 1 1 2 0 0 1.90648 4.20828 -0.705649 5 1.7768 0. -1
</event>
<event>
 4 80 1 -1 -1 -1
 11 -1 0 0 0 0 0 0 5 5 0 0. 9.
 -11 -1 0 0 0 0 0 0 -4.34366 4.34366 0 0. 9.
 15 1 1 2 0 0 2.05841 -2.78523 2.89694 4.85227 1.7768 0. -1
 -15 1 1 2 0 0 -2.05841 2.78523 -2.2406 4.49139 1.7768 0. 1
</event>
<event>
 4 80 1 -1 -1 -1
 11 -1 0 0 0 0 0 0 4.98327 4.98327 0 0. 9.
 -11 -1 0 0 0 0 0 0 -4.96553 4.96553 0 0. 9.
 15 1 1 2 0 0 -2.98931 -1.52559 -3.20415 4.96867 1.7768 0. 1
 -15 1 1 2 0 0 2.98931 1.52559 3.2219 4.98013 1.7768 0. -1
</event>
<event>
 4 80 1 -1 -1 -1
 11 -1 0 0 0 0 0 0 4.96145 4.96145 0 0. 9.
 -11 -1 0 0 0 0 0 0 -4.89212 4.89212 0 0. 9.
 15 1 1 2 0 0 2.74923 -1.82593 3.23193 4.94928 1.7768 0. 1
 -15 1 1 2 0 0 -2.74923 1.82593 -3.1626 4.90429 1.7768 0. -1
</event>
<event>
 4 80 1 -1 -1 -1
 11 -1 0 0 0 0 0 0 5 5 0 0. 9.
 -11 -1 0 0 0 0 0 0 -5 5 0 0. 9.
 15 1 1 2 0 0 4.27016 0.114629 1.89601 5 1.7768 0. 1
 -15 1 1 2 0 0 -4.27016 -0.114629 -1.89601 5 1.7768 0. -1
</event>
<event>
 4 80 1 -1 -1 -1
 11 -1 0 0 0 0 0 0 5 5 0 0. 9.
 -11 -1 0 0 0 0 0 0 -5 5 0 0. 9.
 15 1 1 2 0 0 -2.44305 0.00738842 -3.98419 5 1.7768 0. -1
 -15 1 1 2 0 0 2.44305 -0.00738842 3.98419 5 1.7768 0. 1
</event>
<event>
 4 80 1 -1 -1 -1
 11 -1 0 0 0 0 0 0 4.99999 4.99999 0 0. 9.
 -11 -1 0 0 0 0 0 0 -4.99678 4.99678 0 0. 9.
 15 1 1 2 0 0 -1.32169 -1.75272 4.12559 4.99971 1.7768 0. -1
 -15 1 1 2 0 0 1.32169 1.75272 -4.12238 4.99706 1.7768 0. 1
</event>
<event>
 4 80 1 -1 -1 -1
 11 -1 0 0 0 0 0 0 4.98305 4.98305 0 0. 9.
 -11 -1 0 0 0 0 0 0 -5 5 0 0. 9.
 15 1 1 2 0 0 0.373696 1.05291 4.52024 4.98384 1.7768 0. 1
 -15 1 1 2 0 0 -0.373696 -1.05291 -4.53719 4.99921 1.7768 0. -1
</event>
<event>
 4 80 1 -1 -1 -1
 11 -1 0 0 0 0 0 0 5 5 0 0. 9.
 -11 -1 0 0 0 0 0 0 -4.99833 4.99833 0 0. 9.
 15 1 1 2 0 0 -0.725928 4.3741 -1.47367 4.99892 1.7768 0. -1
 -15 1 1 2 0 0 0.725928 -4.3741 1.47534 4.99941 1.7768 0. 1
</event>
<event>
 4 80 1 -1 -1 -1
 11 -1 0 0 0 0 0 0 5 5 0 0. 9.
 -11 -1 0 0 0 0 0 0 -5 5 0 0. 9.
 15 1 1 2 0 0 3.05853 3.45675 -0.73387 5 1.7768 0. -1
 -15 1 1 2 0 0 -3.05853 -3.45675 0.73387 5 1.7768 0. 1
</event>
<event>
 4 80 1 -1 -1 -1
 11 -1 0 0 0 0 0 0 4.99923 4.99923 0 0. 9.
 -11 -1 0 0 0 0 0 0 -4.92781 4.92781 0 0. 9.
 15 1 1 2 0 0 0.409607 -3.67512 -2.75779 4.94342 1.7768 0. 1
 -15 1 1 2 0 0 -0.409607 3.67512 2.8292 4.98362 1.7768 0. -1
</event>
<event>
 4 80 1 -1 -1 -1
 11 -1 0 0 0 0 0 0 2.21963 2.21963 0 0. 9.
 -11 -1 0 0 0 0 0 0 -4.99999 4.99999 0 0. 9.
 15 1 1 2 0 0 -1.66159 1.36979 -3.35955 4.36824 1.7768 0. 1
 -15 1 1 2 0 0 1.66159 -1.36979 0.579187 2.85138 1.7768 0. -1
</event>
<event>
 4 80 1 -1 -1 -1
 11 -1 0 0 0 0 0 0 5 5 0 0. 9.
 -11 -1 0 0 0 0 0 0 -4.98167 4.98167 0 0. 9.
 15 1 1 2 0 0 0.222335 -4.65845 0.000288911 4.99082 1.7768 0. -1
 -15 1 1 2 0 0 -0.222335 4.65845 0.0180397 4.99085 1.7768 0. 1
</event>
<event>
 4 80 1 -1 -1 -1
 11 -1 0 0 0 0 0 0 4.99994 4.99994 0 0. 9.
 -11 -1 0 0 0 0 0 0 -1.71657 1.71657 0 0. 9.
 15 1 1 2 0 0 0.182526 -1.5205 3.65338 4.34167 1.7768 0. 1
 -15 1 1 2 0 0 -0.182526 1.5205 -0.370009 2.37484 1.7768 0. -1
</event>
<event>
 4 80 1 -1 -1 -1
 11 -1 0 0 0 0 0 0 4.86361 4.86361 0 0. 9.
 -11 -1 0 0 0 0 0 0 -5 5 0 0. 9.
 15 1 1 2 0 0 0.29413 -0.398488 4.50554 4.86856 1.7768 0. 1
 -15 1 1 2 0 0 -0.29413 0.398488 -4.64193 4.99505 1.7768 0. -1
</event>
<event>
 4 80 1 -1 -1 -1
 11 -1 0 0 0 0 0 0 5 5 0 0. 9.
 -11 -1 0 0 0 0 0 0 -4.99885 4.99885 0 0. 9.
 15 1 1 2 0 0 -0.0367141 0.00743031 4.67338 4.99996 1.7768 0. 1
 -15 1 1 2 0 0 0.0367141 -0.00743031 -4.67223 4.99889 1.7768 0. -1
</event>
<event>
 4 80 1 -1 -1 -1
 11 -1 0 0 0 0 0 0 4.98781 4.98781 0 0. 9.
 -11 -1 0 0 0 0 0 0 -4.99971 4.99971 0 0. 9.
 15 1 1 2 0 0 1.89031 1.9784 3.7746 4.98926 1.7768 0. -1
 -15 1 1 2 0 0 -1.89031 -1.9784 -3.7865 4.99827 1.7768 0. 1
</event>
<event>
 4 80 1 -1 -1 -1
 11 -1 0 0 0 0 0 0 4.99854 4.99854 0 0. 9.
 -11 -1 0 0 0 0 0 0 -4.99359 4.99359 0 0. 9.
 15 1 1 2 0 0 0.421543 2.48504 3.9331 4.99801 1.7768 0. 1
 -15 1 1 2 0 0 -0.421543 -2.48504 -3.92815 4.99412 1.7768 0. -1
</event>
<event>
 4 80 1 -1 -1 -1
 11 -1 0 0 0 0 0 0 5 5 0 0. 9.
 -11 -1 0 0 0 0 0 0 -4.9945 4.9945 0 0. 9.
 15 1 1 2 0 0 3.56287 2.39061 -1.84272 4.99624 1.7768 0. -1
 -15 1 1 2 0 0 -3.56287 -2.39061 1.84822 4.99827 1.7768 0. 1
</event>
<event>
 4 80 1 -1 -1 -1
 11 -1 0 0 0 0 0 0 4.99873 4.99873 0 0. 9.
 -11 -1 0 0 0 0 0 0 -5 5 0 0. 9.
 15 1 1 2 0 0 3.24872 -2.20368 -2.5355 4.99969 1.7768 0. -1
 -15 1 1 2 0 0 -3.24872 2.20368 2.53423 4.99904 1.7768 0. 1
</event>
<event>
 4 80 1 -1 -1 -1
 11 -1 0 0 0 0 0 0 4.51098 4.51098 0 0. 9.
 -11 -1 0 0 0 0 0 0 -4.99979 4.99979 0 0. 9.
 15 1 1 2 0 0 -0.311754 0.799959 -4.56974 4.97769 1.7768 0. 1
 -15 1 1 2 0 0 0.311754 -0.799959 4.08093 4.53309 1.7768 0. -1
</event>
<event>
 4 80 1 -1 -1 -1
 11 -1 0 0 0 0 0 0 0.848492 0.848492 0 0. 9.
 -11 -1 0 0 0 0 0 0 -5 5 0 0. 9.
 15 1 1 2 0 0 0.104193 -0.0166064 -3.5468 3.96846 1.7768 0. -1
 -15 1 1 2 0 0 -0.104193 0.0166064 -0.60471 1.88004 1.7768 0. 1
</event>
<event>
 4 80 1 -1 -1 -1
 11 -1 0 0 0 0 0 0 5 5 0 0. 9.
 -11 -1 0 0 0 0 0 0 -5 5 0 0. 9.
 15 1 1 2 0 0 0.83859 -2.80054 3.64637 5 1.7768 0. -1
 -15 1 1 2 0 0 -0.83859 2.80054 -3.64637 5 1.7768 0. 1
</event>
<event>
 4 80 1 -1 -1 -1
 11 -1 0 0 0 0 0 0 4.99994 4.99994 0 0. 9.
 -11 -1 0 0 0 0 0 0 -5 5 0 0. 9.
 15 1 1 2 0 0 1.33789 -2.30008 -3.84212 4.99999 1.7768 0. -1
 -15 1 1 2 0 0 -1.33789 2.30008 3.84206 4.99995 1.7768 0. 1
</event>
<event>
 4 80 1 -1 -1 -1
 11 -1 0 0 0 0 0 0 5 5 0 0. 9.
 -11 -1 0 0 0 0 0 0 -5 5 0 0. 9.
 15 1 1 2 0 0 1.74167 1.45748 4.08468 5 1.7768 0. 1
 -15 1 1 2 0 0 -1.74167 -1.45748 -4.08468 5 1.7768 0. -1
</event>
<event>
 4 80 1 -1 -1 -1
 11 -1 0 0 0 0 0 0 5 5 0 0. 9.
 -11 -1 0 0 0 0 0 0 -5 5 0 0. 9.
 15 1 1 2 0 0 -1.18078 1.34641 -4.31685 5 1.7768 0. 1
 -15 1 1 2 0 0 1.18078 -1.34641 4.31685 5 1.7768 0. -1
</event>
<event>
 4 80 1 -1 -1 -1
 11 -1 0 0 0 0 0 0 5 5 0 0. 9.
 -11 -1 0 0 0 0 0 0 -4.99997 4.99997 0 0. 9.
 15 1 1 2 0 0 -1.60954 2.54191 -3.57632 4.99997 1.7768 0. 1
 -15 1 1 2 0 0 1.60954 -2.54191 3.57635 5 1.7768 0. -1
</event>
<event>
 4 80 1 -1 -1 -1
 11 -1 0 0 0 0 0 0 5 5 0 0. 9.
 -11 -1 0 0 0 0 0 0 -4.66158 4.66158 0 0. 9.
 15 1 1 2 0 0 -2.68211 0.963394 -3.30111 4.70924 1.7768 0. -1
 -15 1 1 2 0 0 2.68211 -0.963394 3.63953 4.95235 1.7768 0. 1
</event>
<event>
 4 80 1 -1 -1 -1
 11 -1 0 0 0 0 0 0 5 5 0 0. 9.
 -11 -1 0 0 0 0 0 0 -5 5 0 0. 9.
 15 1 1 2 0 0 -4.63493 -0.556113 0.224566 5 1.7768 0. 1
 -15 1 1 2 0 0 4.63493 0.556113 -0.224566 5 1.7768 0. -1
</event>
<event>
 4 80 1 -1 -1 -1
 11 -1 0 0 0 0 0 0 5 5 0 0. 9.
 -11 -1 0 0 0 0 0 0 -3.29793 3.29793 0 0. 9.
 15 1 1 2 0 0 -0.376479 3.0066 2.93259 4.57593 1.7768 0. 1
 -15 1 1 2 0 0 0.376479 -3.0066 -1.23051 3.72199 1.7768 0. -1
</event>
<event>
 4 80 1 -1 -1 -1
 11 -1 0 0 0 0 0 0 2.16681 2.16681 0 0. 9.
 -11 -1 0 0 0 0 0 0 -4.99999 4.99999 0 0. 9.
 15 1 1 2 0 0 -0.0812788 -2.31105 0.24476 2.92663 1.7768 0. 1
 -15 1 1 2 0 0 0.0812788 2.31105 -3.07794 4.24016 1.7768 0. -1
</event>
<event>
 4 80 1 -1 -1 -1
 11 -1 0 0 0 0 0 0 5 5 0 0. 9.
 -11 -1 0 0 0 0 0 0 -5 5 0 0. 9.
 15 1 1 2 0 0 3.96906 -1.60391 -1.87518 5 1.7768 0. -1
 -15 1 1 2 0 0 -3.96906 1.60391 1.87518 5 1.7768 0. 1
</event>
<event>
 4 80 1 -1 -1 -1
 11 -1 0 0 0 0 0 0 5 5 0 0. 9.
 -11 -1 0 0 0 0 0 0 -5 5 0 0. 9.
 15 1 1 2 0 0 0.933916 1.65985 4.2679 5 1.7768 0. -1
 -15 1 1 2 0 0 -0.933916 -1.65985 -4.2679 5 1.7768 0. 1
</event>
<event>
 4 80 1 -1 -1 -1
 11 -1 0 0 0 0 0 0 5 5 0 0. 9.
 -11 -1 0 0 0 0 0 0 -4.99621 4.99621 0 0. 9.
 15 1 1 2 0 0 3.82948 -0.323267 -2.65403 4.9971 1.7768 0. 1
 -15 1 1 2 0 0 -3.82948 0.323267 2.65782 4.99911 1.7768 0. -1
</event>
<event>
 4 80 1 -1 -1 -1
 11 -1 0 0 0 0 0 0 4.99995 4.99995 0 0. 9.
 -11 -1 0 0 0 0 0 0 -1.6429 1.6429 0 0. 9.
 15 1 1 2 0 0 -1.85697 -0.088974 3.14459 4.06232 1.7768 0. 1
 -15 1 1 2 0 0 1.85697 0.088974 0.212464 2.58053 1.7768 0. -1
</event>
<event>
 4 80 1 -1 -1 -1
 11 -1 0 0 0 0 0 0 4.99765 4.99765 0 0. 9.
 -11 -1 0 0 0 0 0 0 -4.32336 4.32336 0 0. 9.
 15 1 1 2 0 0 2.03816 0.799921 4.04211 4.92852 1.7768 0. 1
 -15 1 1 2 0 0 -2.03816 -0.799921 -3.36782 4.39249 1.7768 0. -1
</event>
<event>
 4 80 1 -1 -1 -1
 11 -1 0 0 0 0 0 0 4.91872 4.91872 0 0. 9.
 -11 -1 0 0 0 0 0 0 -4.99995 4.99995 0 0. 9.
 15 1 1 2 0 0 -0.768667 -4.53056 -0.605278 4.96396 1.7768 0. -1
 -15 1 1 2 0 0 0.768667 4.53056 0.524052 4.95471 1.7768 0. 1
</event>
<event>
 4 80 1 -1 -1 -1
 11 -1 0 0 0 0 0 0 4.99436 4.99436 0 0. 9.
 -11 -1 0 0 0 0 0 0 -4.56762 4.56762 0 0. 9.
 15 1 1 2 0 0 1.94691 1.4105 3.94195 4.94739 1.7768 0. -1
 -15 1 1 2 0 0 -1.94691 -1.4105 -3.51521 4.61459 1.7768 0. 1
</event>
<event>
 4 80 1 -1 -1 -1
 11 -1 0 0 0 0 0 0 5 5 0 0. 9.
 -11 -1 0 0 0 0 0 0 -4.99998 4.99998 0 0. 9.
 15 1 1 2 0 0 1.07419 1.73743 -4.20352 4.99998 1.7768 0. -1
 -15 1 1 2 0 0 -1.07419 -1.73743 4.20354 5 1.7768 0. 1
</event>
<event>
 4 80 1 -1 -1 -1
 11 -1 0 0 0 0 0 0 5 5 0 0. 9.
 -11 -1 0 0 0 0 0 0 -4.99979 4.99979 0 0. 9.
 15 1 1 2 0 0 -2.94226 1.17867 -3.43429 4.99982 1.7768 0. -1
 -15 1 1 2 0 0 2.94226 -1.17867 3.4345 4.99997 1.7768 0. 1
</event>
<event>
 4 80 1 -1 -1 -1
 11 -1 0 0 0 0 0 0 5 5 0 0. 9.
 -11 -1 0 0 0 0 0 0 -4.95773 4.95773 0 0. 9.
 15 1 1 2 0 0 3.23856 3.04923 1.37938 4.98463 1.7768 0. -1
 -15 1 1 2 0 0 -3.23856 -3.04923 -1.33711 4.9731 1.7768 0. 1
</event>
<event>
 4 80 1 -1 -1 -1
 11 -1 0 0 0 0 0 0 5 5 0 0. 9.
 -11 -1 0 0 0 0 0 0 -5 5 0 0. 9.
 15 1 1 2 0 0 -4.3644 -1.61181 0.443178 5 1.7768 0. -1
 -15 1 1 2 0 0 4.3644 1.61181 -0.443178 5 1.7768 0. 1
</event>
<event>
 4 80 1 -1 -1 -1
 11 -1 0 0 0 0 0 0 5 5 0 0. 9.
 -11 -1 0 0 0 0 0 0 -5 5 0 0. 9.
 15 1 1 2 0 0 0.854864 2.43192 -3.89836 5 1.7768 0. -1
 -15 1 1 2 0 0 -0.854864 -2.43192 3.89836 5 1.7768 0. 1
</event>
<event>
 4 80 1 -1 -1 -1
 11 -1 0 0 0 0 0 0 5 5 0 0. 9.
 -11 -1 0 0 0 0 0 0 -4.99995 4.99995 0 0. 9.
 15 1 1 2 0 0 -0.431842 0.244426 -4.6471 4.99995 1.7768 0. -1
 -15 1 1 2 0 0 0.431842 -0.244426 4.64715 5 1.7768 0. 1
</event>
<event>
 4 80 1 -1 -1 -1
 11 -1 0 0 0 0 0 0 5 5 0 0. 9.
 -11 -1 0 0 0 0 0 0 -4.99976 4.99976 0 0. 9.
 15 1 1 2 0 0 2.82634 -2.39146 -2.85186 4.99981 1.7768 0. -1
 -15 1 1 2 0 0 -2.82634 2.39146 2.8521 4.99995 1.7768 0. 1
</event>
<event>
 4 80 1 -1 -1 -1
 11 -1 0 0 0 0 0 0 5 5 0 0. 9.
 -11 -1 0 0 0 0 0 0 -4.98607 4.98607 0 0. 9.
 15 1 1 2 0 0 3.18947 1.76676 -2.90482 4.98898 1.7768 0. 1
 -15 1 1 2 0 0 -3.18947 -1.76676 2.91874 4.9971 1.7768 0. -1
</event>
<event>
 4 80 1 -1 -1 -1
 11 -1 0 0 0 0 0 0 5 5 0 0. 9.
 -11 -1 0 0 0 0 0 0 -5 5 0 0. 9.
 15 1 1 2 0 0 1.92604 1.90719 3.80727 5 1.7768 0. -1
 -15 1 1 2 0 0 -1.92604 -1.90719 -3.80727 5 1.7768 0. 1
</event>
<event>
 4 80 1 -1 -1 -1
 11 -1 0 0 0 0 0 0 5 5 0 0. 9.
 -11 -1 0 0 0 0 0 0 -4.99961 4.99961 0 0. 9.
 15 1 1 2 0 0 0.0568354 -0.196188 -4.6687 4.99962 1.7768 0. -1
 -15 1 1 2 0 0 -0.0568354 0.196188 4.66909 4.99999 1.7768 0. 1
</event>
<event>
 4 80 1 -1 -1 -1
 11 -1 0 0 0 0 0 0 5 5 0 0. 9.
 -11 -1 0 0 0 0 0 0 -5 5 0 0. 9.
 15 1 1 2 0 0 4.00196 0.897765 -2.24067 5 1.7768 0. 1
 -15 1 1 2 0 0 -4.00196 -0.897765 2.24067 5 1.7768 0. -1
</event>
<event>
 4 80 1 -1 -1 -1
 11 -1 0 0 0 0 0 0 4.99109 4.99109 0 0. 9.
 -11 -1 0 0 0 0 0 0 -4.97533 4.97533 0 0. 9.
 15 1 1 2 0 0 -1.29059 -0.76796 4.4146 4.99018 1.7768 0. -1
 -15 1 1 2 0 0 1.29059 0.76796 -4.39885 4.97624 1.7768 0. 1
</event>
<event>
 4 80 1 -1 -1 -1
 11 -1 0 0 0 0 0 0 4.97633 4.97633 0 0. 9.
 -11 -1 0 0 0 0 0 0 -4.99999 4.99999 0 0. 9.
 15 1 1 2 0 0 -1.76767 -3.6792 2.23822 4.98282 1.7768 0. 1
 -15 1 1 2 0 0 1.76767 3.6792 -2.26187 4.99349 1.7768 0. -1
</event>
<event>
 4 80 1 -1 -1 -1
 11 -1 0 0 0 0 0 0 5 5 0 0. 9.
 -11 -1 0 0 0 0 0 0 -5 5 0 0. 9.
 15 1 1 2 0 0 1.04404 -0.710872 4.49966 5 1.7768 0. -1
 -15 1 1 2 0 0 -1.04404 0.710872 -4.49966 5 1.7768 0. 1
</event>
<event>
 4 80 1 -1 -1 -1
 11 -1 0 0 0 0 0 0 5 5 0 0. 9.
 -11 -1 0 0 0 0 0 0 -5 5 0 0. 9.
 15 1 1 2 0 0 -0.289134 0.191777 4.66068 5 1.7768 0. 1
 -15 1 1 2 0 0 0.289134 -0.191777 -4.66067 5 1.7768 0. -1
</event>
<event>
 4 80 1 -1 -1 -1
 11 -1 0 0 0 0 0 0 3.44527 3.44527 0 0. 9.
 -11 -1 0 0 0 0 0 0 -3.14446 3.14446 0 0. 9.
 15 1 1 2 0 0 0.462621 0.0420934 2.88455 3.41967 1.7768 0. 1
 -15 1 1 2 0 0 -0.462621 -0.0420934 -2.58375 3.17006 1.7768 0. -1
</event>
<event>
 4 80 1 -1 -1 -1
 11 -1 0 0 0 0 0 0 4.98819 4.98819 0 0. 9.
 -11 -1 0 0 0 0 0 0 -5 5 0 0. 9.
 15 1 1 2 0 0 1.60703 -3.88705 -2.02866 4.99649 1.7768 0. -1
 -15 1 1 2 0 0 -1.60703 3.88705 2.01685 4.9917 1.7768 0. 1
</event>
<event>
 4 80 1 -1 -1 -1
 11 -1 0 0 0 0 0 0 5 5 0 0. 9.
 -11 -1 0 0 0 0 0 0 -4.99996 4.99996 0 0. 9.
 15 1 1 2 0 0 -2.33325 -4.02089 -0.480094 4.99998 1.7768 0. -1
 -15 1 1 2 0 0 2.33325 4.02089 0.480129 4.99998 1.7768 0. 1
</event>
<event>
 4 80 1 -1 -1 -1
 11 -1 0 0 0 0 0 0 5 5 0 0. 9.
 -11 -1 0 0 0 0 0 0 -5 5 0 0. 9.
 15 1 1 2 0 0 3.54388 1.22257 -2.79079 5 1.7768 0. 1
 -15 1 1 2 0 0 -3.54388 -1.22257 2.79079 5 1.7768 0. -1
</event>
<event>
 4 80 1 -1 -1 -1
 11 -1 0 0 0 0 0 0 4.99854 4.99854 0 0. 9.
 -11 -1 0 0 0 0 0 0 -5 5 0 0. 9.
 15 1 1 2 0 0 3.18519 3.25962 1.03096 4.99912 1.7768 0. -1
 -15 1 1 2 0 0 -3.18519 -3.25962 -1.03243 4.99942 1.7768 0. 1
</event>
<event>
 4 80 1 -1 -1 -1
 11 -1 0 0 0 0 0 0 4.77601 4.77601 0 0. 9.
 -11 -1 0 0 0 0 0 0 -4.2736 4.2736 0 0. 9.
 15 1 1 2 0 0 -1.70214 2.34761 -2.72735 4.35944 1.7768 0. -1
 -15 1 1 2 0 0 1.70214 -2.34761 3.22976 4.69016 1.7768 0. 1
</event>
<event>
 4 80 1 -1 -1 -1
 11 -1 0 0 0 0 0 0 5 5 0 0. 9.
 -11 -1 0 0 0 0 0 0 -5 5 0 0. 9.
 15 1 1 2 0 0 -1.87171 3.85775 -1.85922 5 1.7768 0. -1
 -15 1 1 2 0 0 1.87171 -3.85775 1.85922 5 1.7768 0. 1
</event>
<event>
 4 80 1 -1 -1 -1
 11 -1 0 0 0 0 0 0 5 5 0 0. 9.
 -11 -1 0 0 0 0 0 0 -4.99916 4.99916 0 0. 9.
 15 1 1 2 0 0 3.42984 0.855284 -3.05618 4.99932 1.7768 0. -1
 -15 1 1 2 0 0 -3.42984 -0.855284 3.05702 4.99984 1.7768 0. 1
</event>
<event>
 4 80 1 -1 -1 -1
 11 -1 0 0 0 0 0 0 4.99991 4.99991 0 0. 9.
 -11 -1 0 0 0 0 0 0 -5 5 0 0. 9.
 15 1 1 2 0 0 3.26948 -3.24598 0.784757 4.99995 1.7768 0. -1
 -15 1 1 2 0 0 -3.26948 3.24598 -0.784849 4.99996 1.7768 0. 1
</event>
<event>
 4 80 1 -1 -1 -1
 11 -1 0 0 0 0 0 0 4.99583 4.99583 0 0. 9.
 -11 -1 0 0 0 0 0 0 -5 5 0 0. 9.
 15 1 1 2 0 0 0.205957 -2.97239 -3.59985 4.99942 1.7768 0. 1
 -15 1 1 2 0 0 -0.205957 2.97239 3.59568 4.99641 1.7768 0. -1
</event>
<event>
 4 80 1 -1 -1 -1
 11 -1 0 0 0 0 0 0 5 5 0 0. 9.
 -11 -1 0 0 0 0 0 0 -4.99861 4.99861 0 0. 9.
 15 1 1 2 0 0 -3.41294 -2.77579 1.57619 4.99952 1.7768 0. 1
 -15 1 1 2 0 0 3.41294 2.77579 -1.5748 4.99909 1.7768 0. -1
</event>
<event>
 4 80 1 -1 -1 -1
 11 -1 0 0 0 0 0 0 5 5 0 0. 9.
 -11 -1 0 0 0 0 0 0 -5 5 0 0. 9.
 15 1 1 2 0 0 3.35868 -1.69872 -2.77053 5 1.7768 0. -1
 -15 1 1 2 0 0 -3.35868 1.69872 2.77054 5 1.7768 0. 1
</event>
<event>
 4 80 1 -1 -1 -1
 11 -1 0 0 0 0 0 0 4.99946 4.99946 0 0. 9.
 -11 -1 0 0 0 0 0 0 -4.99998 4.99998 0 0. 9.
 15 1 1 2 0 0 -0.59205 1.69484 4.31442 4.99949 1.7768 0. -1
 -15 1 1 2 0 0 0.59205 -1.69484 -4.31494 4.99995 1.7768 0. 1
</event>
<event>
 4 80 1 -1 -1 -1
 11 -1 0 0 0 0 0 0 5 5 0 0. 9.
 -11 -1 0 0 0 0 0 0 -5 5 0 0. 9.
 15 1 1 2 0 0 3.57867 -2.30985 -1.92353 5 1.7768 0. 1
 -15 1 1 2 0 0 -3.57867 2.30985 1.92353 5 1.7768 0. -1
</event>
<event>
 4 80 1 -1 -1 -1
 11 -1 0 0 0 0 0 0 4.87442 4.87442 0 0. 9.
 -11 -1 0 0 0 0 0 0 -4.99999 4.99999 0 0. 9.
 15 1 1 2 0 0 -1.86737 2.3073 3.45937 4.89241 1.7768 0. 1
 -15 1 1 2 0 0 1.86737 -2.3073 -3.58494 4.98199 1.7768 0. -1
</event>
<event>
 4 80 1 -1 -1 -1
 11 -1 0 0 0 0 0 0 3.65667 3.65667 0 0. 9.
 -11 -1 0 0 0 0 0 0 -4.99997 4.99997 0 0. 9.
 15 1 1 2 0 0 2.05557 3.09328 -1.83984 4.5096 1.7768 0. 1
 -15 1 1 2 0 0 -2.05557 -3.09328 0.496533 4.14705 1.7768 0. -1
</event>
<event>
 4 80 1 -1 -1 -1
 11 -1 0 0 0 0 0 0 5 5 0 0. 9.
 -11 -1 0 0 0 0 0 0 -5 5 0 0. 9.
 15 1 1 2 0 0 -2.69201 -3.62236 -1.21403 5 1.7768 0. 1
 -15 1 1 2 0 0 2.69201 3.62236 1.21403 5 1.7768 0. -1
</event>
<event>
 4 80 1 -1 -1 -1
 11 -1 0 0 0 0 0 0 5 5 0 0. 9.
 -11 -1 0 0 0 0 0 0 -4.99324 4.99324 0 0. 9.
 15 1 1 2 0 0 0.858923 -1.06514 -4.46162 4.9936 1.7768 0. -1
 -15 1 1 2 0 0 -0.858923 1.06514 4.46838 4.99964 1.7768 0. 1
</event>
<event>
 4 80 1 -1 -1 -1
 11 -1 0 0 0 0 0 0 5 5 0 0. 9.
 -11 -1 0 0 0 0 0 0 -4.85623 4.85623 0 0. 9.
 15 1 1 2 0 0 -1.50246 -0.23536 -4.2657 4.86484 1.7768 0. 1
 -15 1 1 2 0 0 1.50246 0.23536 4.40947 4.99138 1.7768 0. -1
</event>
<event>
 4 80 1 -1 -1 -1
 11 -1 0 0 0 0 0 0 5 5 0 0. 9.
 -11 -1 0 0 0 0 0 0 -5 5 0 0. 9.
 15 1 1 2 0 0 -1.45412 -0.0436042 -4.44139 5 1.7768 0. 1
 -15 1 1 2 0 0 1.45412 0.0436042 4.44139 5 1.7768 0. -1
</event>
<event>
 4 80 1 -1 -1 -1
 11 -1 0 0 0 0 0 0 1.96138 1.96138 0 0. 9.
 -11 -1 0 0 0 0 0 0 -5 5 0 0. 9.
 15 1 1 2 0 0 -2.28127 -0.861389 -2.45123 3.88747 1.7768 0. 1
 -15 1 1 2 0 0 2.28127 0.861389 -0.587383 3.07391 1.7768 0. -1
</event>
<event>
 4 80 1 -1 -1 -1
 11 -1 0 0 0 0 0 0 5 5 0 0. 9.
 -11 -1 0 0 0 0 0 0 -4.99698 4.99698 0 0. 9.
 15 1 1 2 0 0 2.30594 0.75689 -3.9906 4.99728 1.7768 0. -1
 -15 1 1 2 0 0 -2.30594 -0.75689 3.99362 4.9997 1.7768 0. 1
</event>
<event>
 4 80 1 -1 -1 -1
 11 -1 0 0 0 0 0 0 5 5 0 0. 9.
 -11 -1 0 0 0 0 0 0 -4.99971 4.99971 0 0. 9.
 15 1 1 2 0 0 -1.24785 -0.366196 4.48898 4.99999 1.7768 0. 1
 -15 1 1 2 0 0 1.24785 0.366196 -4.48869 4.99973 1.7768 0. -1
</event>
<event>
 4 80 1 -1 -1 -1
 11 -1 0 0 0 0 0 0 4.8571 4.8571 0 0. 9.
 -11 -1 0 0 0 0 0 0 -5 5 0 0. 9.
 15 1 1 2 0 0 2.28879 -3.28026 -2.33643 4.96139 1.7768 0. -1
 -15 1 1 2 0 0 -2.28879 3.28026 2.19354 4.89572 1.7768 0. 1
</event>
<event>
 4 80 1 -1 -1 -1
 11 -1 0 0 0 0 0 0 5 5 0 0. 9.
 -11 -1 0 0 0 0 0 0 -5 5 0 0. 9.
 15 1 1 2 0 0 -2.57447 3.24363 -2.16639 5 1.7768 0. -1
 -15 1 1 2 0 0 2.57447 -3.24363 2.16639 5 1.7768 0. 1
</event>
<event>
 4 80 1 -1 -1 -1
 11 -1 0 0 0 0 0 0 5 5 0 0. 9.
 -11 -1 0 0 0 0 0 0 -5 5 0 0. 9.
 15 1 1 2 0 0 3.23333 0.100269 -3.3731 5 1.7768 0. -1
 -15 1 1 2 0 0 -3.23333 -0.100269 3.3731 5 1.7768 0. 1
</event>
<event>
 4 80 1 -1 -1 -1
 11 -1 0 0 0 0 0 0 5 5 0 0. 9.
 -11 -1 0 0 0 0 0 0 -4.99997 4.99997 0 0. 9.
 15 1 1 2 0 0 4.15378 -1.65192 -1.36357 4.99998 1.7768 0. 1
 -15 1 1 2 0 0 -4.15378 1.65192 1.3636 4.99999 1.7768 0. -1
</event>
<event>
 4 80 1 -1 -1 -1
 11 -1 0 0 0 0 0 0 5 5 0 0. 9.
 -11 -1 0 0 0 0 0 0 -5 5 0 0. 9.
 15 1 1 2 0 0 0.25898 4.57586 -0.914708 5 1.7768 0. 1
 -15 1 1 2 0 0 -0.25898 -4.57586 0.914708 5 1.7768 0. -1
</event>
<event>
 4 80 1 -1 -1 -1
 11 -1 0 0 0 0 0 0 5 5 0 0. 9.
 -11 -1 0 0 0 0 0 0 -5 5 0 0. 9.
 15 1 1 2 0 0 3.24409 -3.35284 -0.276816 5 1.7768 0. 1
 -15 1 1 2 0 0 -3.24409 3.35284 0.276816 5 1.7768 0. -1
</event>
<event>
 4 80 1 -1 -1 -1
 11 -1 0 0 0 0 0 0 5 5 0 0. 9.
 -11 -1 0 0 0 0 0 0 -5 5 0 0. 9.
 15 1 1 2 0 0 -2.37746 -2.37602 3.24722 5 1.7768 0. 1
 -15 1 1 2 0 0 2.37746 2.37602 -3.24722 5 1.7768 0. -1
</event>
<event>
 4 80 1 -1 -1 -1
 11 -1 0 0 0 0 0 0 4.00374 4.00374 0 0. 9.
 -11 -1 0 0 0 0 0 0 -4.99999 4.99999 0 0. 9.
 15 1 1 2 0 0 -1.78479 -1.11888 3.04836 4.10945 1.7768 0. 1
 -15 1 1 2 0 0 1.78479 1.11888 -4.04461 4.89428 1.7768 0. -1
</event>
<event>
 4 80 1 -1 -1 -1
 11 -1 0 0 0 0 0 0 5 5 0 0. 9.
 -11 -1 0 0 0 0 0 0 -4.94878 4.94878 0 0. 9.
 15 1 1 2 0 0 -3.52248 0.510638 -2.96066 4.95902 1.7768 0. 1
 -15 1 1 2 0 0 3.52248 -0.510638 3.01188 4.98976 1.7768 0. -1
</event>
<event>
 4 80 1 -1 -1 -1
 11 -1 0 0 0 0 0 0 4.99997 4.99997 0 0. 9.
 -11 -1 0 0 0 0 0 0 -4.22621 4.22621 0 0. 9.
 15 1 1 2 0 0 2.26785 0.157156 -3.20422 4.31192 1.7768 0. 1
 -15 1 1 2 0 0 -2.26785 -0.157156 3.97799 4.91426 1.7768 0. -1
</event>
<event>
 4 80 1 -1 -1 -1
 11 -1 0 0 0 0 0 0 5 5 0 0. 9.
 -11 -1 0 0 0 0 0 0 -4.99991 4.99991 0 0. 9.
 15 1 1 2 0 0 2.86698 -2.89599 -2.28808 4.99994 1.7768 0. 1
 -15 1 1 2 0 0 -2.86698 2.89599 2.28816 4.99998 1.7768 0. -1
</event>
<event>
 4 80 1 -1 -1 -1
 11 -1 0 0 0 0 0 0 4.99953 4.99953 0 0. 9.
 -11 -1 0 0 0 0 0 0 -4.98965 4.98965 0 0. 9.
 15 1 1 2 0 0 0.223085 -3.88775 2.57862 4.99714 1.7768 0. 1
 -15 1 1 2 0 0 -0.223085 3.88775 -2.56874 4.99205 1.7768 0. -1
</event>
<event>
 4 80 1 -1 -1 -1
 11 -1 0 0 0 0 0 0 4.99981 4.99981 0 0. 9.
 -11 -1 0 0 0 0 0 0 -4.63995 4.63995 0 0. 9.
 15 1 1 2 0 0 -2.76389 -3.23174 1.58015 4.87215 1.7768 0. 1
 -15 1 1 2 0 0 2.76389 3.23174 -1.22028 4.76761 1.7768 0. -1
</event>
<event>
 4 80 1 -1 -1 -1
 11 -1 0 0 0 0 0 0 5 5 0 0. 9.
 -11 -1 0 0 0 0 0 0 -5 5 0 0. 9.
 15 1 1 2 0 0 -0.673498 -1.29494 4.4398 5 1.7768 0. -1
 -15 1 1 2 0 0 0.673498 1.29494 -4.4398 5 1.7768 0. 1
</event>
<event>
 4 80 1 -1 -1 -1
 11 -1 0 0 0 0 0 0 5 5 0 0. 9.
 -11 -1 0 0 0 0 0 0 -4.9953 4.9953 0 0. 9.
 15 1 1 2 0 0 1.51684 -1.84464 -4.01203 4.99576 1.7768 0. 1
 -15 1 1 2 0 0 -1.51684 1.84464 4.01673 4.99954 1.7768 0. -1
</event>
<event>
 4 80 1 -1 -1 -1
 11 -1 0 0 0 0 0 0 4.91996 4.91996 0 0. 9.
 -11 -1 0 0 0 0 0 0 -5 5 0 0. 9.
 15 1 1 2 0 0 -0.295329 -0.781618 4.51468 4.92323 1.7768 0. -1
 -15 1 1 2 0 0 0.295329 0.781618 -4.59472 4.99673 1.7768 0. 1
</event>
<event>
 4 80 1 -1 -1 -1
 11 -1 0 0 0 0 0 0 5 5 0 0. 9.
 -11 -1 0 0 0 0 0 0 -4.99993 4.99993 0 0. 9.
 15 1 1 2 0 0 0.269233 2.37515 4.01601 4.99999 1.7768 0. -1
 -15 1 1 2 0 0 -0.269233 -2.37515 -4.01595 4.99994 1.7768 0. 1
</event>
<event>
 4 80 1 -1 -1 -1
 11 -1 0 0 0 0 0 0 4.87201 4.87201 0 0. 9.
 -11 -1 0 0 0 0 0 0 -5 5 0 0. 9.
 15 1 1 2 0 0 -0.423823 2.55171 -3.87371 4.9854 1.7768 0. 1
 -15 1 1 2 0 0 0.423823 -2.55171 3.74572 4.88661 1.7768 0. -1
</event>
<event>
 4 80 1 -1 -1 -1
 11 -1 0 0 0 0 0 0 4.99999 4.99999 0 0. 9.
 -11 -1 0 0 0 0 0 0 -4.99995 4.99995 0 0. 9.
 15 1 1 2 0 0 -1.89813 1.79829 3.87368 4.99999 1.7768 0. -1
 -15 1 1 2 0 0 1.89813 -1.79829 -3.87364 4.99996 1.7768 0. 1
</event>
<event>
 4 80 1 -1 -1 -1
 11 -1 0 0 0 0 0 0 5 5 0 0. 9.
 -11 -1 0 0 0 0 0 0 -5 5 0 0. 9.
 15 1 1 2 0 0 -4.20216 -0.891109 -1.8412 5 1.7768 0. 1
 -15 1 1 2 0 0 4.20216 0.891109 1.8412 5 1.7768 0. -1
</event>
<event>
 4 80 1 -1 -1 -1
 11 -1 0 0 0 0 0 0 4.9949 4.9949 0 0. 9.
 -11 -1 0 0 0 0 0 0 -5 5 0 0. 9.
 15 1 1 2 0 0 -3.14627 -3.16192 -1.38822 4.99816 1.7768 0. -1
 -15 1 1 2 0 0 3.14627 3.16192 1.38312 4.99675 1.7768 0. 1
</event>
<event>
 4 80 1 -1 -1 -1
 11 -1 0 0 0 0 0 0 3.87962 3.87962 0 0. 9.
 -11 -1 0 0 0 0 0 0 -4.99997 4.99997 0 0. 9.
 15 1 1 2 0 0 0.727298 -3.00557 -3.16515 4.76847 1.7768 0. -1
 -15 1 1 2 0 0 -0.727298 3.00557 2.04479 4.11112 1.7768 0. 1
</event>
<event>
 4 80 1 -1 -1 -1
 11 -1 0 0 0 0 0 0 5 5 0 0. 9.
 -11 -1 0 0 0 0 0 0 -5 5 0 0. 9.
 15 1 1 2 0 0 -1.49649 -2.49431 3.65803 5 1.7768 0. -1
 -15 1 1 2 0 0 1.49649 2.49431 -3.65803 5 1.7768 0. 1
</event>
<event>
 4 80 1 -1 -1 -1
 11 -1 0 0 0 0 0 0 4.99926 4.99926 0 0. 9.
 -11 -1 0 0 0 0 0 0 -5 5 0 0. 9.
 15 1 1 2 0 0 2.01656 3.37657 2.52367 4.99944 1.7768 0. 1
 -15 1 1 2 0 0 -2.01656 -3.37657 -2.52442 4.99982 1.7768 0. -1
</event>
<event>
 4 80 1 -1 -1 -1
 11 -1 0 0 0 0 0 0 4.88394 4.88394 0 0. 9.
 -11 -1 0 0 0 0 0 0 -5 5 0 0. 9.
 15 1 1 2 0 0 2.02332 3.81967 1.54779 4.92312 1.7768 0. -1
 -15 1 1 2 0 0 -2.02332 -3.81967 -1.66385 4.96083 1.7768 0. 1
</event>
<event>
 4 80 1 -1 -1 -1
 11 -1 0 0 0 0 0 0 1.43547 1.43547 0 0. 9.
 -11 -1 0 0 0 0 0 0 -4.91017 4.91017 0 0. 9.
 15 1 1 2 0 0 0.2774 1.86262 -2.43867 3.55684 1.7768 0. -1
 -15 1 1 2 0 0 -0.2774 -1.86262 -1.03603 2.7888 1.7768 0. 1
</event>
<event>
 4 80 1 -1 -1 -1
 11 -1 0 0 0 0 0 0 3.34464 3.34464 0 0. 9.
 -11 -1 0 0 0 0 0 0 -4.68363 4.68363 0 0. 9.
 15 1 1 2 0 0 -1.72308 1.27866 2.18173 3.5386 1.7768 0. -1
 -15 1 1 2 0 0 1.72308 -1.27866 -3.52072 4.48967 1.7768 0. 1
</event>
<event>
 4 80 1 -1 -1 -1
 11 -1 0 0 0 0 0 0 4.99999 4.99999 0 0. 9.
 -11 -1 0 0 0 0 0 0 -4.9981 4.9981 0 0. 9.
 15 1 1 2 0 0 -4.28464 0.922324 1.62081 4.99935 1.7768 0. 1
 -15 1 1 2 0 0 4.28464 -0.922324 -1.61891 4.99874 1.7768 0. -1
</event>
<event>
 4 80 1 -1 -1 -1
 11 -1 0 0 0 0 0 0 5 5 0 0. 9.
 -11 -1 0 0 0 0 0 0 -5 5 0 0. 9.
 15 1 1 2 0 0 -0.197733 -3.13233 -3.4629 5 1.7768 0. 1
 -15 1 1 2 0 0 0.197733 3.13233 3.4629 5 1.7768 0. -1
</event>
<event>
 4 80 1 -1 -1 -1
 11 -1 0 0 0 0 0 0 1.06521 1.06521 0 0. 9.
 -11 -1 0 0 0 0 0 0 -5 5 0 0. 9.
 15 1 1 2 0 0 -0.586932 -1.19208 -1.13341 2.49156 1.7768 0. 1
 -15 1 1 2 0 0 0.586932 1.19208 -2.80137 3.57365 1.7768 0. -1
</event>
<event>
 4 80 1 -1 -1 -1
 11 -1 0 0 0 0 0 0 4.99013 4.99013 0 0. 9.
 -11 -1 0 0 0 0 0 0 -4.9854 4.9854 0 0. 9.
 15 1 1 2 0 0 0.0356836 3.55404 -3.01219 4.98634 1.7768 0. 1
 -15 1 1 2 0 0 -0.0356836 -3.55404 3.01692 4.98919 1.7768 0. -1
</event>
<event>
 4 80 1 -1 -1 -1
 11 -1 0 0 0 0 0 0 4.68277 4.68277 0 0. 9.
 -11 -1 0 0 0 0 0 0 -5 5 0 0. 9.
 15 1 1 2 0 0 -3.84399 0.317912 -2.47908 4.91741 1.7768 0. 1
 -15 1 1 2 0 0 3.84399 -0.317912 2.16185 4.76536 1.7768 0. -1
</event>
<event>
 4 80 1 -1 -1 -1
 11 -1 0 0 0 0 0 0 4.7709 4.7709 0 0. 9.
 -11 -1 0 0 0 0 0 0 -4.98846 4.98846 0 0. 9.
 15 1 1 2 0 0 -1.51138 -0.0988116 -4.39327 4.97519 1.7768 0. -1
 -15 1 1 2 0 0 1.51138 0.0988116 4.1757 4.78416 1.7768 0. 1
</event>
<event>
 4 80 1 -1 -1 -1
 11 -1 0 0 0 0 0 0 5 5 0 0. 9.
 -11 -1 0 0 0 0 0 0 -5 5 0 0. 9.
 15 1 1 2 0 0 -3.35968 1.77732 2.71955 5 1.7768 0. -1
 -15 1 1 2 0 0 3.35968 -1.77732 -2.71955 5 1.7768 0. 1
</event>
<event>
 4 80 1 -1 -1 -1
 11 -1 0 0 0 0 0 0 5 5 0 0. 9.
 -11 -1 0 0 0 0 0 0 -2.45234 2.45234 0 0. 9.
 15 1 1 2 0 0 2.79551 0.59818 0.246954 3.37512 1.7768 0. -1
 -15 1 1 2 0 0 -2.79551 -0.59818 2.30071 4.07722 1.7768 0. 1
</event>
<event>
 4 80 1 -1 -1 -1
 11 -1 0 0 0 0 0 0 4.95679 4.95679 0 0. 9.
 -11 -1 0 0 0 0 0 0 -5 5 0 0. 9.
 15 1 1 2 0 0 2.3284 -1.31174 -3.82744 4.99491 1.7768 0. -1
 -15 1 1 2 0 0 -2.3284 1.31174 3.78423 4.96188 1.7768 0. 1
</event>
<event>
 4 80 1 -1 -1 -1
 11 -1 0 0 0 0 0 0 5 5 0 0. 9.
 -11 -1 0 0 0 0 0 0 -5 5 0 0. 9.
 15 1 1 2 0 0 -2.86288 0.0435276 -3.69382 5 1.7768 0. -1
 -15 1 1 2 0 0 2.86288 -0.0435276 3.69382 5 1.7768 0. 1
</event>
<event>
 4 80 1 -1 -1 -1
 11 -1 0 0 0 0 0 0 5 5 0 0. 9.
 -11 -1 0 0 0 0 0 0 -4.99728 4.99728 0 0. 9.
 15 1 1 2 0 0 1.50708 -3.07706 -3.17497 4.99777 1.7768 0. 1
 -15 1 1 2 0 0 -1.50708 3.07706 3.17769 4.9995 1.7768 0. -1
</event>
<event>
 4 80 1 -1 -1 -1
 11 -1 0 0 0 0 0 0 5 5 0 0. 9.
 -11 -1 0 0 0 0 0 0 -4.99674 4.99674 0 0. 9.
 15 1 1 2 0 0 0.580695 4.32502 1.66984 4.99891 1.7768 0. 1
 -15 1 1 2 0 0 -0.580695 -4.32502 -1.66658 4.99782 1.7768 0. -1
</event>
<event>
 4 80 1 -1 -1 -1
 11 -1 0 0 0 0 0 0 5 5 0 0. 9.
 -11 -1 0 0 0 0 0 0 -1.20855 1.20855 0 0. 9.
 15 1 1 2 0 0 -0.507882 0.905642 0.198229 2.06764 1.7768 0. 1
 -15 1 1 2 0 0 0.507882 -0.905642 3.59322 4.14091 1.7768 0. -1
</event>
<event>
 4 80 1 -1 -1 -1
 11 -1 0 0 0 0 0 0 4.95504 4.95504 0 0. 9.
 -11 -1 0 0 0 0 0 0 -4.99998 4.99998 0 0. 9.
 15 1 1 2 0 0 -1.38775 0.667146 -4.4096 4.99732 1.7768 0. -1
 -15 1 1 2 0 0 1.38775 -0.667146 4.36465 4.9577 1.7768 0. 1
</event>
<event>
 4 80 1 -1 -1 -1
 11 -1 0 0 0 0 0 0 1.7106 1.7106 0 0. 9.
 -11 -1 0 0 0 0 0 0 -5 5 0 0. 9.
 15 1 1 2 0 0 -0.0276041 1.89217 -0.0993969 2.59783 1.7768 0. -1
 -15 1 1 2 0 0 0.0276041 -1.89217 -3.19 4.11278 1.7768 0. 1
</event>
<event>
 4 80 1 -1 -1 -1
 11 -1 0 0 0 0 0 0 5 5 0 0. 9.
 -11 -1 0 0 0 0 0 0 -5 5 0 0. 9.
 15 1 1 2 0 0 -0.269082 0.535584 -4.63498 5 1.7768 0. 1
 -15 1 1 2 0 0 0.269082 -0.535584 4.63498 5 1.7768 0. -1
</event>
<event>
 4 80 1 -1 -1 -1
 11 -1 0 0 0 0 0 0 4.01205 4.01205 0 0. 9.
 -11 -1 0 0 0 0 0 0 -4.99418 4.99418 0 0. 9.
 15 1 1 2 0 0 -1.97962 3.59966 -0.438211 4.49735 1.7768 0. 1
 -15 1 1 2 0 0 1.97962 -3.59966 -0.543918 4.50888 1.7768 0. -1
</event>
<event>
 4 80 1 -1 -1 -1
 11 -1 0 0 0 0 0 0 1.37446 1.37446 0 0. 9.
 -11 -1 0 0 0 0 0 0 -4.98563 4.98563 0 0. 9.
 15 1 1 2 0 0 -1.32275 0.644634 -3.30803 4.03312 1.7768 0. 1
 -15 1 1 2 0 0 1.32275 -0.644634 -0.303138 2.32698 1.7768 0. -1
</event>
<event>
 4 80 1 -1 -1 -1
 11 -1 0 0 0 0 0 0 5 5 0 0. 9.
 -11 -1 0 0 0 0 0 0 -4.99999 4.99999 0 0. 9.
 15 1 1 2 0 0 -0.5162 -4.51783 -1.0793 4.99999 1.7768 0. -1
 -15 1 1 2 0 0 0.5162 4.51783 1.07932 4.99999 1.7768 0. 1
</event>
<event>
 4 80 1 -1 -1 -1
 11 -1 0 0 0 0 0 0 5 5 0 0. 9.
 -11 -1 0 0 0 0 0 0 -5 5 0 0. 9.
 15 1 1 2 0 0 2.81094 -3.58778 1.03379 5 1.7768 0. -1
 -15 1 1 2 0 0 -2.81094 3.58778 -1.03379 5 1.7768 0. 1
</event>
<event>
 4 80 1 -1 -1 -1
 11 -1 0 0 0 0 0 0 4.68807 4.68807 0 0. 9.
 -11 -1 0 0 0 0 0 0 -0.913874 0.913874 0 0. 9.
 15 1 1 2 0 0 0.814379 -0.544164 1.33369 2.42812 1.7768 0. -1
 -15 1 1 2 0 0 -0.814379 0.544164 2.44051 3.17382 1.7768 0. 1
</event>
<event>
 4 80 1 -1 -1 -1
 11 -1 0 0 0 0 0 0 4.98934 4.98934 0 0. 9.
 -11 -1 0 0 0 0 0 0 -5 5 0 0. 9.
 15 1 1 2 0 0 -4.46587 1.3203 -0.324319 4.99501 1.7768 0. 1
 -15 1 1 2 0 0 4.46587 -1.3203 0.313655 4.99433 1.7768 0. -1
</event>
<event>
 4 80 1 -1 -1 -1
 11 -1 0 0 0 0 0 0 5 5 0 0. 9.
 -11 -1 0 0 0 0 0 0 -4.99221 4.99221 0 0. 9.
 15 1 1 2 0 0 0.793319 1.32754 -4.40197 4.99267 1.7768 0. 1
 -15 1 1 2 0 0 -0.793319 -1.32754 4.40976 4.99954 1.7768 0. -1
</event>
<event>
 4 80 1 -1 -1 -1
 11 -1 0 0 0 0 0 0 4.8854 4.8854 0 0. 9.
 -11 -1 0 0 0 0 0 0 -5 5 0 0. 9.
 15 1 1 2 0 0 3.76711 2.58381 -0.6914 4.95005 1.7768 0. -1
 -15 1 1 2 0 0 -3.76711 -2.58381 0.576799 4.93535 1.7768 0. 1
</event>
<event>
 4 80 1 -1 -1 -1
 11 -1 0 0 0 0 0 0 5 5 0 0. 9.
 -11 -1 0 0 0 0 0 0 -4.82055 4.82055 0 0. 9.
 15 1 1 2 0 0 -3.8411 1.79265 -1.63608 4.87874 1.7768 0. -1
 -15 1 1 2 0 0 3.8411 -1.79265 1.81553 4.94181 1.7768 0. 1
</event>
<event>
 4 80 1 -1 -1 -1
 11 -1 0 0 0 0 0 0 4.9677 4.9677 0 0. 9.
 -11 -1 0 0 0 0 0 0 -4.98634 4.98634 0 0. 9.
 15 1 1 2 0 0 3.81475 0.0696614 2.64694 4.97204 1.7768 0. -1
 -15 1 1 2 0 0 -3.81475 -0.0696614 -2.66558 4.98199 1.7768 0. 1
</event>
<event>
 4 80 1 -1 -1 -1
 11 -1 0 0 0 0 0 0 4.99852 4.99852 0 0. 9.
 -11 -1 0 0 0 0 0 0 -4.9428 4.9428 0 0. 9.
 15 1 1 2 0 0 1.72129 -2.92776 3.19246 4.9884 1.7768 0. -1
 -15 1 1 2 0 0 -1.72129 2.92776 -3.13674 4.95292 1.7768 0. 1
</event>
<event>
 4 80 1 -1 -1 -1
 11 -1 0 0 0 0 0 0 5 5 0 0. 9.
 -11 -1 0 0 0 0 0 0 -5 5 0 0. 9.
 15 1 1 2 0 0 -3.76894 0.686233 2.67702 5 1.7768 0. 1
 -15 1 1 2 0 0 3.76894 -0.686233 -2.67702 5 1.7768 0. -1
</event>
<event>
 4 80 1 -1 -1 -1
 11 -1 0 0 0 0 0 0 4.9998 4.9998 0 0. 9.
 -11 -1 0 0 0 0 0 0 -5 5 0 0. 9.
 15 1 1 2 0 0 1.40915 -3.99929 -1.96511 4.99994 1.7768 0. 1
 -15 1 1 2 0 0 -1.40915 3.99929 1.96491 4.99986 1.7768 0. -1
</event>
<event>
 4 80 1 -1 -1 -1
 11 -1 0 0 0 0 0 0 5 5 0 0. 9.
 -11 -1 0 0 0 0 0 0 -5 5 0 0. 9.
 15 1 1 2 0 0 -4.49495 1.20484 -0.431304 5 1.7768 0. -1
 -15 1 1 2 0 0 4.49495 -1.20484 0.431304 5 1.7768 0. 1
</event>
<event>
 4 80 1 -1 -1 -1
 11 -1 0 0 0 0 0 0 5 5 0 0. 9.
 -11 -1 0 0 0 0 0 0 -5 5 0 0. 9.
 15 1 1 2 0 0 2.65133 3.66778 1.16624 5 1.7768 0. -1
 -15 1 1 2 0 0 -2.65133 -3.66778 -1.16624 5 1.7768 0. 1
</event>
<event>
 4 80 1 -1 -1 -1
 11 -1 0 0 0 0 0 0 4.72083 4.72083 0 0. 9.
 -11 -1 0 0 0 0 0 0 -4.9983 4.9983 0 0. 9.
 15 1 1 2 0 0 -2.43517 -3.78002 0.330298 4.84618 1.7768 0. -1
 -15 1 1 2 0 0 2.43517 3.78002 -0.607764 4.87296 1.7768 0. 1
</event>
<event>
 4 80 1 -1 -1 -1
 11 -1 0 0 0 0 0 0 4.19471 4.19471 0 0. 9.
 -11 -1 0 0 0 0 0 0 -5 5 0 0. 9.
 15 1 1 2 0 0 2.54645 -1.40934 -3.47143 4.86612 1.7768 0. -1
 -15 1 1 2 0 0 -2.54645 1.40934 2.66613 4.32858 1.7768 0. 1
</event>
<event>
 4 80 1 -1 -1 -1
 11 -1 0 0 0 0 0 0 5 5 0 0. 9.
 -11 -1 0 0 0 0 0 0 -5 5 0 0. 9.
 15 1 1 2 0 0 3.4048 -1.41423 -2.8722 5 1.7768 0. -1
 -15 1 1 2 0 0 -3.4048 1.41423 2.8722 5 1.7768 0. 1
</event>
<event>
 4 80 1 -1 -1 -1
 11 -1 0 0 0 0 0 0 5 5 0 0. 9.
 -11 -1 0 0 0 0 0 0 -5 5 0 0. 9.
 15 1 1 2 0 0 4.47979 0.976114 0.906064 5 1.7768 0. 1
 -15 1 1 2 0 0 -4.47979 -0.976114 -0.906064 5 1.7768 0. -1
</event>
<event>
 4 80 1 -1 -1 -1
 11 -1 0 0 0 0 0 0 5 5 0 0. 9.
 -11 -1 0 0 0 0 0 0 -1.72611 1.72611 0 0. 9.
 15 1 1 2 0 0 -1.18773 0.446644 3.8868 4.45816 1.7768 0. -1
 -15 1 1 2 0 0 1.18773 -0.446644 -0.612913 2.26795 1.7768 0. 1
</event>
<event>
 4 80 1 -1 -1 -1
 11 -1 0 0 0 0 0 0 5 5 0 0. 9.
 -11 -1 0 0 0 0 0 0 -4.99999 4.99999 0 0. 9.
 15 1 1 2 0 0 -0.428782 -3.18609 -3.39222 4.99999 1.7768 0. -1
 -15 1 1 2 0 0 0.428782 3.18609 3.39223 5 1.7768 0. 1
</event>
<event>
 4 80 1 -1 -1 -1
 11 -1 0 0 0 0 0 0 5 5 0 0. 9.
 -11 -1 0 0 0 0 0 0 -4.98163 4.98163 0 0. 9.
 15 1 1 2 0 0 4.23204 -0.202258 1.95839 4.9944 1.7768 0. 1
 -15 1 1 2 0 0 -4.23204 0.202258 -1.94002 4.98723 1.7768 0. -1
</event>
<event>
 4 80 1 -1 -1 -1
 11 -1 0 0 0 0 0 0 4.99936 4.99936 0 0. 9.
 -11 -1 0 0 0 0 0 0 -2.5451 2.5451 0 0. 9.
 15 1 1 2 0 0 -2.9178 0.225109 0.168586 3.42788 1.7768 0. -1
 -15 1 1 2 0 0 2.9178 -0.225109 2.28567 4.11658 1.7768 0. 1
</event>
<event>
 4 80 1 -1 -1 -1
 11 -1 0 0 0 0 0 0 5 5 0 0. 9.
 -11 -1 0 0 0 0 0 0 -4.99982 4.99982 0 0. 9.
 15 1 1 2 0 0 3.58215 -2.985 0.315377 4.99992 1.7768 0. -1
 -15 1 1 2 0 0 -3.58215 2.985 -0.315202 4.99991 1.7768 0. 1
</event>
<event>
 4 80 1 -1 -1 -1
 11 -1 0 0 0 0 0 0 5 5 0 0. 9.
 -11 -1 0 0 0 0 0 0 -4.99965 4.99965 0 0. 9.
 15 1 1 2 0 0 2.45931 0.665261 -3.91769 4.99968 1.7768 0. -1
 -15 1 1 2 0 0 -2.45931 -0.665261 3.91805 4.99996 1.7768 0. 1
</event>
<event>
 4 80 1 -1 -1 -1
 11 -1 0 0 0 0 0 0 5 5 0 0. 9.
 -11 -1 0 0 0 0 0 0 -4.9958 4.9958 0 0. 9.
 15 1 1 2 0 0 0.73263 -2.8755 -3.60567 4.99638 1.7768 0. -1
 -15 1 1 2 0 0 -0.73263 2.8755 3.60987 4.99942 1.7768 0. 1
</event>
<event>
 4 80 1 -1 -1 -1
 11 -1 0 0 0 0 0 0 5 5 0 0. 9.
 -11 -1 0 0 0 0 0 0 -5 5 0 0. 9.
 15 1 1 2 0 0 0.981945 1.88402 -4.16275 5 1.7768 0. 1
 -15 1 1 2 0 0 -0.981945 -1.88402 4.16275 5 1.7768 0. -1
</event>
<event>
 4 80 1 -1 -1 -1
 11 -1 0 0 0 0 0 0 5 5 0 0. 9.
 -11 -1 0 0 0 0 0 0 -5 5 0 0. 9.
 15 1 1 2 0 0 -0.80591 1.09952 -4.47033 5 1.7768 0. 1
 -15 1 1 2 0 0 0.80591 -1.09952 4.47033 5 1.7768 0. -1
</event>
<event>
 4 80 1 -1 -1 -1
 11 -1 0 0 0 0 0 0 5 5 0 0. 9.
 -11 -1 0 0 0 0 0 0 -5 5 0 0. 9.
 15 1 1 2 0 0 2.0784 -2.10317 3.61929 5 1.7768 0. 1
 -15 1 1 2 0 0 -2.0784 2.10317 -3.61929 5 1.7768 0. -1
</event>
<event>
 4 80 1 -1 -1 -1
 11 -1 0 0 0 0 0 0 5 5 0 0. 9.
 -11 -1 0 0 0 0 0 0 -5 5 0 0. 9.
 15 1 1 2 0 0 4.23605 1.1656 1.5936 5 1.7768 0. -1
 -15 1 1 2 0 0 -4.23605 -1.1656 -1.5936 5 1.7768 0. 1
</event>
<event>
 4 80 1 -1 -1 -1
 11 -1 0 0 0 0 0 0 4.87519 4.87519 0 0. 9.
 -11 -1 0 0 0 0 0 0 -5 5 0 0. 9.
 15 1 1 2 0 0 1.9821 3.99107 1.10424 4.92285 1.7768 0. -1
 -15 1 1 2 0 0 -1.9821 -3.99107 -1.22905 4.95234 1.7768 0. 1
</event>
<event>
 4 80 1 -1 -1 -1
 11 -1 0 0 0 0 0 0 4.8391 4.8391 0 0. 9.
 -11 -1 0 0 0 0 0 0 -4.98848 4.98848 0 0. 9.
 15 1 1 2 0 0 -0.802936 -1.13215 -4.44046 4.98015 1.7768 0. 1
 -15 1 1 2 0 0 0.802936 1.13215 4.29108 4.84743 1.7768 0. -1
</event>
<event>
 4 80 1 -1 -1 -1
 11 -1 0 0 0 0 0 0 4.98865 4.98865 0 0. 9.
 -11 -1 0 0 0 0 0 0 -5 5 0 0. 9.
 15 1 1 2 0 0 0.702983 -4.48934 -1.07206 4.99554 1.7768 0. 1
 -15 1 1 2 0 0 -0.702983 4.48934 1.06071 4.99312 1.7768 0. -1
</event>
<event>
 4 80 1 -1 -1 -1
 11 -1 0 0 0 0 0 0 5 5 0 0. 9.
 -11 -1 0 0 0 0 0 0 -4.95793 4.95793 0 0. 9.
 15 1 1 2 0 0 -3.05294 0.928395 3.40479 4.99326 1.7768 0. 1
 -15 1 1 2 0 0 3.05294 -0.928395 -3.36272 4.96467 1.7768 0. -1
</event>
<event>
 4 80 1 -1 -1 -1
 11 -1 0 0 0 0 0 0 5 5 0 0. 9.
 -11 -1 0 0 0 0 0 0 -5 5 0 0. 9.
 15 1 1 2 0 0 -0.827663 -3.2344 3.27046 5 1.7768 0. -1
 -15 1 1 2 0 0 0.827663 3.2344 -3.27046 5 1.7768 0. 1
</event>
<event>
 4 80 1 -1 -1 -1
 11 -1 0 0 0 0 0 0 5 5 0 0. 9.
 -11 -1 0 0 0 0 0 0 -5 5 0 0. 9.
 15 1 1 2 0 0 1.54276 3.36307 -2.85515 5 1.7768 0. 1
 -15 1 1 2 0 0 -1.54276 -3.36307 2.85514 5 1.7768 0. -1
</event>
<event>
 4 80 1 -1 -1 -1
 11 -1 0 0 0 0 0 0 5 5 0 0. 9.
 -11 -1 0 0 0 0 0 0 -4.9999 4.9999 0 0. 9.
 15 1 1 2 0 0 1.40104 1.83079 -4.0653 4.99991 1.7768 0. 1
 -15 1 1 2 0 0 -1.40104 -1.83079 4.0654 4.99999 1.7768 0. -1
</event>
<event>
 4 80 1 -1 -1 -1
 11 -1 0 0 0 0 0 0 4.25629 4.25629 0 0. 9.
 -11 -1 0 0 0 0 0 0 -5 5 0 0. 9.
 15 1 1 2 0 0 3.28101 -0.132508 2.34639 4.40974 1.7768 0. -1
 -15 1 1 2 0 0 -3.28101 0.132508 -3.0901 4.84655 1.7768 0. 1
</event>
<event>
 4 80 1 -1 -1 -1
 11 -1 0 0 0 0 0 0 5 5 0 0. 9.
 -11 -1 0 0 0 0 0 0 -5 5 0 0. 9.
 15 1 1 2 0 0 0.0504933 2.30193 -4.06704 5 1.7768 0. -1
 -15 1 1 2 0 0 -0.0504933 -2.30193 4.06704 5 1.7768 0. 1
</event>
<event>
 4 80 1 -1 -1 -1
 11 -1 0 0 0 0 0 0 4.2264 4.2264 0 0. 9.
 -11 -1 0 0 0 0 0 0 -5 5 0 0. 9.
 15 1 1 2 0 0 -2.21707 3.56527 0.204955 4.56358 1.7768 0. 1
 -15 1 1 2 0 0 2.21707 -3.56527 -0.978552 4.66281 1.7768 0. -1
</event>
<event>
 4 80 1 -1 -1 -1
 11 -1 0 0 0 0 0 0 4.98679 4.98679 0 0. 9.
 -11 -1 0 0 0 0 0 0 -5 5 0 0. 9.
 15 1 1 2 0 0 -0.527851 -1.96637 -4.20554 4.99895 1.7768 0. -1
 -15 1 1 2 0 0 0.527851 1.96637 4.19233 4.98784 1.7768 0. 1
</event>
<event>
 4 80 1 -1 -1 -1
 11 -1 0 0 0 0 0 0 4.99985 4.99985 0 0. 9.
 -11 -1 0 0 0 0 0 0 -4.99999 4.99999 0 0. 9.
 15 1 1 2 0 0 0.850854 -0.92308 -4.50178 4.99998 1.7768 0. 1
 -15 1 1 2 0 0 -0.850854 0.92308 4.50165 4.99986 1.7768 0. -1
</event>
<event>
 4 80 1 -1 -1 -1
 11 -1 0 0 0 0 0 0 5 5 0 0. 9.
 -11 -1 0 0 0 0 0 0 -4.99995 4.99995 0 0. 9.
 15 1 1 2 0 0 -2.68199 -2.76317 2.64839 4.99999 1.7768 0. 1
 -15 1 1 2 0 0 2.68199 2.76317 -2.64833 4.99996 1.7768 0. -1
</event>
<event>
 4 80 1 -1 -1 -1
 11 -1 0 0 0 0 0 0 4.33281 4.33281 0 0. 9.
 -11 -1 0 0 0 0 0 0 -5 5 0 0. 9.
 15 1 1 2 0 0 -3.54841 1.42688 1.64101 4.52524 1.7768 0. 1
 -15 1 1 2 0 0 3.54841 -1.42688 -2.3082 4.80757 1.7768 0. -1
</event>
<event>
 4 80 1 -1 -1 -1
 11 -1 0 0 0 0 0 0 5 5 0 0. 9.
 -11 -1 0 0 0 0 0 0 -4.91294 4.91294 0 0. 9.
 15 1 1 2 0 0 0.707107 -4.4833 -0.854819 4.94858 1.7768 0. -1
 -15 1 1 2 0 0 -0.707107 4.4833 0.941877 4.96436 1.7768 0. 1
</event>
<event>
 4 80 1 -1 -1 -1
 11 -1 0 0 0 0 0 0 4.98118 4.98118 0 0. 9.
 -11 -1 0 0 0 0 0 0 -5 5 0 0. 9.
 15 1 1 2 0 0 -1.48568 -4.26849 1.1399 4.98842 1.7768 0. -1
 -15 1 1 2 0 0 1.48568 4.26849 -1.15872 4.99276 1.7768 0. 1
</event>
<event>
 4 80 1 -1 -1 -1
 11 -1 0 0 0 0 0 0 5 5 0 0. 9.
 -11 -1 0 0 0 0 0 0 -4.99995 4.99995 0 0. 9.
 15 1 1 2 0 0 -0.568554 -4.23823 -1.88575 4.99996 1.7768 0. 1
 -15 1 1 2 0 0 0.568554 4.23823 1.88581 4.99998 1.7768 0. -1
</event>
<event>
 4 80 1 -1 -1 -1
 11 -1 0 0 0 0 0 0 4.68565 4.68565 0 0. 9.
 -11 -1 0 0 0 0 0 0 -5 5 0 0. 9.
 15 1 1 2 0 0 1.10663 3.00938 -3.31946 4.94546 1.7768 0. -1
 -15 1 1 2 0 0 -1.10663 -3.00938 3.00511 4.74019 1.7768 0. 1
</event>
<event>
 4 80 1 -1 -1 -1
 11 -1 0 0 0 0 0 0 5 5 0 0. 9.
 -11 -1 0 0 0 0 0 0 -4.92843 4.92843 0 0. 9.
 15 1 1 2 0 0 -3.73817 -2.52309 -1.03408 4.9565 1.7768 0. -1
 -15 1 1 2 0 0 3.73817 2.52309 1.10564 4.97193 1.7768 0. 1
</event>
<event>
 4 80 1 -1 -1 -1
 11 -1 0 0 0 0 0 0 5 5 0 0. 9.
 -11 -1 0 0 0 0 0 0 -5 5 0 0. 9.
 15 1 1 2 0 0 0.268123 -1.39222 4.45332 5 1.7768 0. 1
 -15 1 1 2 0 0 -0.268123 1.39222 -4.45332 5 1.7768 0. -1
</event>
<event>
 4 80 1 -1 -1 -1
 11 -1 0 0 0 0 0 0 5 5 0 0. 9.
 -11 -1 0 0 0 0 0 0 -4.99893 4.99893 0 0. 9.
 15 1 1 2 0 0 -3.75891 1.86103 2.06065 4.99968 1.7768 0. 1
 -15 1 1 2 0 0 3.75891 -1.86103 -2.05958 4.99924 1.7768 0. -1
</event>
<event>
 4 80 1 -1 -1 -1
 11 -1 0 0 0 0 0 0 5 5 0 0. 9.
 -11 -1 0 0 0 0 0 0 -4.71372 4.71372 0 0. 9.
 15 1 1 2 0 0 -2.96459 3.40782 0.0490271 4.85409 1.7768 0. 1
 -15 1 1 2 0 0 2.96459 -3.40782 0.237252 4.85963 1.7768 0. -1
</event>
<event>
 4 80 1 -1 -1 -1
 11 -1 0 0 0 0 0 0 5 5 0 0. 9.
 -11 -1 0 0 0 0 0 0 -4.99026 4.99026 0 0. 9.
 15 1 1 2 0 0 -3.97511 0.668081 -2.35008 4.99283 1.7768 0. -1
 -15 1 1 2 0 0 3.97511 -0.668081 2.35981 4.99743 1.7768 0. 1
</event>
<event>
 4 80 1 -1 -1 -1
 11 -1 0 0 0 0 0 0 5 5 0 0. 9.
 -11 -1 0 0 0 0 0 0 -5 5 0 0. 9.
 15 1 1 2 0 0 0.923154 3.26348 3.21555 5 1.7768 0. -1
 -15 1 1 2 0 0 -0.923154 -3.26348 -3.21555 5 1.7768 0. 1
</event>
<event>
 4 80 1 -1 -1 -1
 11 -1 0 0 0 0 0 0 5 5 0 0. 9.
 -11 -1 0 0 0 0 0 0 -2.14944 2.14944 0 0. 9.
 15 1 1 2 0 0 -1.11457 1.19148 3.84581 4.53981 1.7768 0. -1
 -15 1 1 2 0 0 1.11457 -1.19148 -0.995248 2.60963 1.7768 0. 1
</event>
<event>
 4 80 1 -1 -1 -1
 11 -1 0 0 0 0 0 0 5 5 0 0. 9.
 -11 -1 0 0 0 0 0 0 -4.13691 4.13691 0 0. 9.
 15 1 1 2 0 0 -3.66705 -0.443506 2.4109 4.75543 1.7768 0. 1
 -15 1 1 2 0 0 3.66705 0.443506 -1.54781 4.38148 1.7768 0. -1
</event>
<event>
 4 80 1 -1 -1 -1
 11 -1 0 0 0 0 0 0 4.99307 4.99307 0 0. 9.
 -11 -1 0 0 0 0 0 0 -4.83524 4.83524 0 0. 9.
 15 1 1 2 0 0 1.31761 4.09604 -1.49335 4.88891 1.7768 0. 1
 -15 1 1 2 0 0 -1.31761 -4.09604 1.65118 4.93941 1.7768 0. -1
</event>
<event>
 4 80 1 -1 -1 -1
 11 -1 0 0 0 0 0 0 5 5 0 0. 9.
 -11 -1 0 0 0 0 0 0 -5 5 0 0. 9.
 15 1 1 2 0 0 1.31396 4.02708 -1.97444 5 1.7768 0. -1
 -15 1 1 2 0 0 -1.31396 -4.02708 1.97444 5 1.7768 0. 1
</event>
<event>
 4 80 1 -1 -1 -1
 11 -1 0 0 0 0 0 0 5 5 0 0. 9.
 -11 -1 0 0 0 0 0 0 -5 5 0 0. 9.
 15 1 1 2 0 0 3.28995 -1.40521 -3.00731 5 1.7768 0. 1
 -15 1 1 2 0 0 -3.28995 1.40521 3.00731 5 1.7768 0. -1
</event>
<event>
 4 80 1 -1 -1 -1
 11 -1 0 0 0 0 0 0 4.99996 4.99996 0 0. 9.
 -11 -1 0 0 0 0 0 0 -5 5 0 0. 9.
 15 1 1 2 0 0 -4.35129 0.298151 1.67909 4.99997 1.7768 0. -1
 -15 1 1 2 0 0 4.35129 -0.298151 -1.67913 4.99999 1.7768 0. 1
</event>
<event>
 4 80 1 -1 -1 -1
 11 -1 0 0 0 0 0 0 4.99847 4.99847 0 0. 9.
 -11 -1 0 0 0 0 0 0 -5 5 0 0. 9.
 15 1 1 2 0 0 -3.08751 1.52713 3.15673 4.99875 1.7768 0. 1
 -15 1 1 2 0 0 3.08751 -1.52713 -3.15826 4.99972 1.7768 0. -1
</event>
<event>
 4 80 1 -1 -1 -1
 11 -1 0 0 0 0 0 0 5 5 0 0. 9.
 -11 -1 0 0 0 0 0 0 -4.99209 4.99209 0 0. 9.
 15 1 1 2 0 0 0.969652 -1.32341 -4.36766 4.99258 1.7768 0. 1
 -15 1 1 2 0 0 -0.969652 1.32341 4.37558 4.99951 1.7768 0. -1
</event>
<event>
 4 80 1 -1 -1 -1
 11 -1 0 0 0 0 0 0 5 5 0 0. 9.
 -11 -1 0 0 0 0 0 0 -4.99987 4.99987 0 0. 9.
 15 1 1 2 0 0 -4.4375 -0.228601 1.4485 4.99995 1.7768 0. 1
 -15 1 1 2 0 0 4.4375 0.228601 -1.44837 4.99992 1.7768 0. -1
</event>
<event>
 4 80 1 -1 -1 -1
 11 -1 0 0 0 0 0 0 4.99999 4.99999 0 0. 9.
 -11 -1 0 0 0 0 0 0 -4.99971 4.99971 0 0. 9.
 15 1 1 2 0 0 -2.55529 -3.13889 -2.33624 4.99979 1.7768 0. 1
 -15 1 1 2 0 0 2.55529 3.13889 2.33652 4.99992 1.7768 0. -1
</event>
<event>
 4 80 1 -1 -1 -1
 11 -1 0 0 0 0 0 0 5 5 0 0. 9.
 -11 -1 0 0 0 0 0 0 -5 5 0 0. 9.
 15 1 1 2 0 0 -0.0614782 0.643748 4.62862 5 1.7768 0. -1
 -15 1 1 2 0 0 0.0614782 -0.643748 -4.62862 5 1.7768 0. 1
</event>
<event>
 4 80 1 -1 -1 -1
 11 -1 0 0 0 0 0 0 4.99592 4.99592 0 0. 9.
 -11 -1 0 0 0 0 0 0 -4.99457 4.99457 0 0. 9.
 15 1 1 2 0 0 4.32991 1.6793 -0.475337 4.99518 1.7768 0. 1
 -15 1 1 2 0 0 -4.32991 -1.6793 0.476682 4.99531 1.7768 0. -1
</event>
<event>
 4 80 1 -1 -1 -1
 11 -1 0 0 0 0 0 0 4.99997 4.99997 0 0. 9.
 -11 -1 0 0 0 0 0 0 -5 5 0 0. 9.
 15 1 1 2 0 0 -3.56623 -0.948115 2.86794 4.99997 1.7768 0. 1
 -15 1 1 2 0 0 3.56623 0.948115 -2.86797 4.99999 1.7768 0. -1
</event>
<event>
 4 80 1 -1 -1 -1
 11 -1 0 0 0 0 0 0 2.9574 2.9574 0 0. 9.
 -11 -1 0 0 0 0 0 0 -5 5 0 0. 9.
 15 1 1 2 0 0 2.68507 -2.10221 -1.00092 3.97347 1.7768 0. -1
 -15 1 1 2 0 0 -2.68507 2.10221 -1.04168 3.98393 1.7768 0. 1
</event>
<event>
 4 80 1 -1 -1 -1
 11 -1 0 0 0 0 0 0 4.47263 4.47263 0 0. 9.
 -11 -1 0 0 0 0 0 0 -4.9964 4.9964 0 0. 9.
 15 1 1 2 0 0 1.14463 -4.19859 -0.763612 4.76227 1.7768 0. -1
 -15 1 1 2 0 0 -1.14463 4.19859 0.239845 4.70676 1.7768 0. 1
</event>
<event>
 4 80 1 -1 -1 -1
 11 -1 0 0 0 0 0 0 5 5 0 0. 9.
 -11 -1 0 0 0 0 0 0 -5 5 0 0. 9.
 15 1 1 2 0 0 1.35738 -4.31961 -1.15789 5 1.7768 0. -1
 -15 1 1 2 0 0 -1.35738 4.31961 1.15789 5 1.7768 0. 1
</event>
<event>
 4 80 1 -1 -1 -1
 11 -1 0 0 0 0 0 0 4.99985 4.99985 0 0. 9.
 -11 -1 0 0 0 0 0 0 -4.99999 4.99999 0 0. 9.
 15 1 1 2 0 0 4.17994 1.63461 1.30288 4.99991 1.7768 0. -1
 -15 1 1 2 0 0 -4.17994 -1.63461 -1.30302 4.99994 1.7768 0. 1
</event>
<event>
 4 80 1 -1 -1 -1
 11 -1 0 0 0 0 0 0 4.93427 4.93427 0 0. 9.
 -11 -1 0 0 0 0 0 0 -4.99801 4.99801 0 0. 9.
 15 1 1 2 0 0 -3.58637 1.77867 2.30872 4.95112 1.7768 0. 1
 -15 1 1 2 0 0 3.58637 -1.77867 -2.37245 4.98116 1.7768 0. -1
</event>
<event>
 4 80 1 -1 -1 -1
 11 -1 0 0 0 0 0 0 5 5 0 0. 9.
 -11 -1 0 0 0 0 0 0 -5 5 0 0. 9.
 15 1 1 2 0 0 3.05175 -3.50728 0.477552 5 1.7768 0. 1
 -15 1 1 2 0 0 -3.05175 3.50728 -0.477552 5 1.7768 0. -1
</event>
<event>
 4 80 1 -1 -1 -1
 11 -1 0 0 0 0 0 0 4.99588 4.99588 0 0. 9.
 -11 -1 0 0 0 0 0 0 -4.99999 4.99999 0 0. 9.
 15 1 1 2 0 0 -1.66755 2.13391 3.80417 4.99637 1.7768 0. -1
 -15 1 1 2 0 0 1.66755 -2.13391 -3.80828 4.9995 1.7768 0. 1
</event>
<event>
 4 80 1 -1 -1 -1
 11 -1 0 0 0 0 0 0 5 5 0 0. 9.
 -11 -1 0 0 0 0 0 0 -5 5 0 0. 9.
 15 1 1 2 0 0 -3.88338 -1.51015 -2.11686 5 1.7768 0. 1
 -15 1 1 2 0 0 3.88338 1.51015 2.11686 5 1.7768 0. -1
</event>
<event>
 4 80 1 -1 -1 -1
 11 -1 0 0 0 0 0 0 1.29214 1.29214 0 0. 9.
 -11 -1 0 0 0 0 0 0 -4.40866 4.40866 0 0. 9.
 15 1 1 2 0 0 -1.01612 1.08014 -2.25429 3.2309 1.7768 0. -1
 -15 1 1 2 0 0 1.01612 -1.08014 -0.862228 2.46989 1.7768 0. 1
</event>
<event>
 4 80 1 -1 -1 -1
 11 -1 0 0 0 0 0 0 5 5 0 0. 9.
 -11 -1 0 0 0 0 0 0 -4.99999 4.99999 0 0. 9.
 15 1 1 2 0 0 0.127211 -3.19873 3.40503 5 1.7768 0. -1
 -15 1 1 2 0 0 -0.127211 3.19873 -3.40502 4.99999 1.7768 0. 1
</event>
<event>
 4 80 1 -1 -1 -1
 11 -1 0 0 0 0 0 0 4.99683 4.99683 0 0. 9.
 -11 -1 0 0 0 0 0 0 -4.9998 4.9998 0 0. 9.
 15 1 1 2 0 0 4.50818 -0.67004 -1.02754 4.99862 1.7768 0. 1
 -15 1 1 2 0 0 -4.50818 0.67004 1.02458 4.99801 1.7768 0. -1
</event>
<event>
 4 80 1 -1 -1 -1
 11 -1 0 0 0 0 0 0 4.94333 4.94333 0 0. 9.
 -11 -1 0 0 0 0 0 0 -4.99996 4.99996 0 0. 9.
 15 1 1 2 0 0 1.78707 -2.50737 3.44711 4.95185 1.7768 0. -1
 -15 1 1 2 0 0 -1.78707 2.50737 -3.50375 4.99144 1.7768 0. 1
</event>
<event>
 4 80 1 -1 -1 -1
 11 -1 0 0 0 0 0 0 4.91464 4.91464 0 0. 9.
 -11 -1 0 0 0 0 0 0 -5 5 0 0. 9.
 15 1 1 2 0 0 1.30247 -4.33035 -1.02613 4.96579 1.7768 0. -1
 -15 1 1 2 0 0 -1.30247 4.33035 0.940775 4.94885 1.7768 0. 1
</event>
<event>
 4 80 1 -1 -1 -1
 11 -1 0 0 0 0 0 0 5 5 0 0. 9.
 -11 -1 0 0 0 0 0 0 -4.12946 4.12946 0 0. 9.
 15 1 1 2 0 0 -1.28094 2.8539 3.22359 4.83061 1.7768 0. 1
 -15 1 1 2 0 0 1.28094 -2.8539 -2.35305 4.29885 1.7768 0. -1
</event>
<event>
 4 80 1 -1 -1 -1
 11 -1 0 0 0 0 0 0 3.71136 3.71136 0 0. 9.
 -11 -1 0 0 0 0 0 0 -1.74735 1.74735 0 0. 9.
 15 1 1 2 0 0 1.29565 0.864938 -0.0350358 2.36343 1.7768 0. 1
 -15 1 1 2 0 0 -1.29565 -0.864938 1.99905 3.09528 1.7768 0. -1
</event>
<event>
 4 80 1 -1 -1 -1
 11 -1 0 0 0 0 0 0 5 5 0 0. 9.
 -11 -1 0 0 0 0 0 0 -5 5 0 0. 9.
 15 1 1 2 0 0 -0.845495 -2.75499 -3.67933 5 1.7768 0. 1
 -15 1 1 2 0 0 0.845495 2.75499 3.67933 5 1.7768 0. -1
</event>
<event>
 4 80 1 -1 -1 -1
 11 -1 0 0 0 0 0 0 5 5 0 0. 9.
 -11 -1 0 0 0 0 0 0 -4.98097 4.98097 0 0. 9.
 15 1 1 2 0 0 -4.59274 -0.367075 -0.710956 4.98911 1.7768 0. 1
 -15 1 1 2 0 0 4.59274 0.367075 0.729987 4.99186 1.7768 0. -1
</event>
<event>
 4 80 1 -1 -1 -1
 11 -1 0 0 0 0 0 0 4.95289 4.95289 0 0. 9.
 -11 -1 0 0 0 0 0 0 -4.97587 4.97587 0 0. 9.
 15 1 1 2 0 0 -1.40942 3.99392 -1.89547 4.96874 1.7768 0. -1
 -15 1 1 2 0 0 1.40942 -3.99392 1.87249 4.96002 1.7768 0. 1
</event>
<event>
 4 80 1 -1 -1 -1
 11 -1 0 0 0 0 0 0 4.9707 4.9707 0 0. 9.
 -11 -1 0 0 0 0 0 0 -5 5 0 0. 9.
 15 1 1 2 0 0 -3.66393 1.88652 2.15617 4.97897 1.7768 0. -1
 -15 1 1 2 0 0 3.66393 -1.88652 -2.18547 4.99173 1.7768 0. 1
</event>
<event>
 4 80 1 -1 -1 -1
 11 -1 0 0 0 0 0 0 5 5 0 0. 9.
 -11 -1 0 0 0 0 0 0 -4.55067 4.55067 0 0. 9.
 15 1 1 2 0 0 3.13395 -0.339988 -2.88657 4.62896 1.7768 0. -1
 -15 1 1 2 0 0 -3.13395 0.339988 3.3359 4.92171 1.7768 0. 1
</event>
<event>
 4 80 1 -1 -1 -1
 11 -1 0 0 0 0 0 0 5 5 0 0. 9.
 -11 -1 0 0 0 0 0 0 -5 5 0 0. 9.
 15 1 1 2 0 0 4.07622 1.43146 1.78259 5 1.7768 0. 1
 -15 1 1 2 0 0 -4.07622 -1.43146 -1.78259 5 1.7768 0. -1
</event>
<event>
 4 80 1 -1 -1 -1
 11 -1 0 0 0 0 0 0 5 5 0 0. 9.
 -11 -1 0 0 0 0 0 0 -2.90372 2.90372 0 0. 9.
 15 1 1 2 0 0 1.59125 2.4948 2.72202 4.39582 1.7768 0. 1
 -15 1 1 2 0 0 -1.59125 -2.4948 -0.625738 3.5079 1.7768 0. -1
</event>
<event>
 4 80 1 -1 -1 -1
 11 -1 0 0 0 0 0 0 4.9604 4.9604 0 0. 9.
 -11 -1 0 0 0 0 0 0 -5 5 0 0. 9.
 15 1 1 2 0 0 -1.72004 1.45472 -4.0904 4.99638 1.7768 0. 1
 -15 1 1 2 0 0 1.72004 -1.45472 4.0508 4.96402 1.7768 0. -1
</event>
<event>
 4 80 1 -1 -1 -1
 11 -1 0 0 0 0 0 0 5 5 0 0. 9.
 -11 -1 0 0 0 0 0 0 -4.99397 4.99397 0 0. 9.
 15 1 1 2 0 0 1.96102 -4.22949 -0.276104 4.99682 1.7768 0. 1
 -15 1 1 2 0 0 -1.96102 4.22949 0.282132 4.99715 1.7768 0. -1
</event>
<event>
 4 80 1 -1 -1 -1
 11 -1 0 0 0 0 0 0 4.97591 4.97591 0 0. 9.
 -11 -1 0 0 0 0 0 0 -4.99537 4.99537 0 0. 9.
 15 1 1 2 0 0 0.285772 -1.04491 -4.54023 4.99449 1.7768 0. 1
 -15 1 1 2 0 0 -0.285772 1.04491 4.52076 4.9768 1.7768 0. -1
</event>
<event>
 4 80 1 -1 -1 -1
 11 -1 0 0 0 0 0 0 5 5 0 0. 9.
 -11 -1 0 0 0 0 0 0 -3.78049 3.78049 0 0. 9.
 15 1 1 2 0 0 -3.80186 1.05362 0.180798 4.33067 1.7768 0. 1
 -15 1 1 2 0 0 3.80186 -1.05362 1.03871 4.44982 1.7768 0. -1
</event>
<event>
 4 80 1 -1 -1 -1
 11 -1 0 0 0 0 0 0 5 5 0 0. 9.
 -11 -1 0 0 0 0 0 0 -5 5 0 0. 9.
 15 1 1 2 0 0 1.94567 -3.43258 -2.5048 5 1.7768 0. 1
 -15 1 1 2 0 0 -1.94567 3.43258 2.5048 5 1.7768 0. -1
</event>
<event>
 4 80 1 -1 -1 -1
 11 -1 0 0 0 0 0 0 4.99752 4.99752 0 0. 9.
 -11 -1 0 0 0 0 0 0 -5 5 0 0. 9.
 15 1 1 2 0 0 0.117423 -3.67369 2.88322 4.99805 1.7768 0. -1
 -15 1 1 2 0 0 -0.117423 3.67369 -2.88569 4.99948 1.7768 0. 1
</event>
<event>
 4 80 1 -1 -1 -1
 11 -1 0 0 0 0 0 0 5 5 0 0. 9.
 -11 -1 0 0 0 0 0 0 -5 5 0 0. 9.
 15 1 1 2 0 0 -3.87304 -2.61432 -0.0849692 5 1.7768 0. 1
 -15 1 1 2 0 0 3.87304 2.61432 0.0849688 5 1.7768 0. -1
</event>
<event>
 4 80 1 -1 -1 -1
 11 -1 0 0 0 0 0 0 5 5 0 0. 9.
 -11 -1 0 0 0 0 0 0 -5 5 0 0. 9.
 15 1 1 2 0 0 -0.258696 -4.37652 1.61907 5 1.7768 0. 1
 -15 1 1 2 0 0 0.258696 4.37652 -1.61908 5 1.7768 0. -1
</event>
<event>
 4 80 1 -1 -1 -1
 11 -1 0 0 0 0 0 0 4.99784 4.99784 0 0. 9.
 -11 -1 0 0 0 0 0 0 -5 5 0 0. 9.
 15 1 1 2 0 0 1.76038 0.489693 -4.3014 4.99985 1.7768 0. -1
 -15 1 1 2 0 0 -1.76038 -0.489693 4.29923 4.99799 1.7768 0. 1
</event>
<event>
 4 80 1 -1 -1 -1
 11 -1 0 0 0 0 0 0 4.21047 4.21047 0 0. 9.
 -11 -1 0 0 0 0 0 0 -5 5 0 0. 9.
 15 1 1 2 0 0 0.651288 -1.01204 -4.46514 4.95415 1.7768 0. -1
 -15 1 1 2 0 0 -0.651288 1.01204 3.67561 4.25632 1.7768 0. 1
</event>
<event>
 4 80 1 -1 -1 -1
 11 -1 0 0 0 0 0 0 5 5 0 0. 9.
 -11 -1 0 0 0 0 0 0 -4.58351 4.58351 0 0. 9.
 15 1 1 2 0 0 0.538598 4.10768 -1.40469 4.72166 1.7768 0. -1
 -15 1 1 2 0 0 -0.538598 -4.10768 1.82119 4.86185 1.7768 0. 1
</event>
<event>
 4 80 1 -1 -1 -1
 11 -1 0 0 0 0 0 0 4.07622 4.07622 0 0. 9.
 -11 -1 0 0 0 0 0 0 -5 5 0 0. 9.
 15 1 1 2 0 0 1.21215 0.394579 -4.43198 4.94219 1.7768 0. 1
 -15 1 1 2 0 0 -1.21215 -0.394579 3.50821 4.13404 1.7768 0. -1
</event>
<event>
 4 80 1 -1 -1 -1
 11 -1 0 0 0 0 0 0 5 5 0 0. 9.
 -11 -1 0 0 0 0 0 0 -5 5 0 0. 9.
 15 1 1 2 0 0 2.83327 -1.49222 3.40413 5 1.7768 0. 1
 -15 1 1 2 0 0 -2.83327 1.49222 -3.40413 5 1.7768 0. -1
</event>
<event>
 4 80 1 -1 -1 -1
 11 -1 0 0 0 0 0 0 4.91164 4.91164 0 0. 9.
 -11 -1 0 0 0 0 0 0 -5 5 0 0. 9.
 15 1 1 2 0 0 3.77903 -0.396517 2.59451 4.93229 1.7768 0. -1
 -15 1 1 2 0 0 -3.77903 0.396517 -2.68287 4.97934 1.7768 0. 1
</event>
<event>
 4 80 1 -1 -1 -1
 11 -1 0 0 0 0 0 0 4.99991 4.99991 0 0. 9.
 -11 -1 0 0 0 0 0 0 -4.93459 4.93459 0 0. 9.
 15 1 1 2 0 0 -0.131212 0.620888 4.62755 4.99746 1.7768 0. 1
 -15 1 1 2 0 0 0.131212 -0.620888 -4.56223 4.93704 1.7768 0. -1
</event>
<event>
 4 80 1 -1 -1 -1
 11 -1 0 0 0 0 0 0 4.49822 4.49822 0 0. 9.
 -11 -1 0 0 0 0 0 0 -4.99881 4.99881 0 0. 9.
 15 1 1 2 0 0 -1.19506 1.63052 -4.15974 4.95459 1.7768 0. -1
 -15 1 1 2 0 0 1.19506 -1.63052 3.65915 4.54245 1.7768 0. 1
</event>
<event>
 4 80 1 -1 -1 -1
 11 -1 0 0 0 0 0 0 4.99714 4.99714 0 0. 9.
 -11 -1 0 0 0 0 0 0 -5 5 0 0. 9.
 15 1 1 2 0 0 -1.65829 3.53445 -2.56769 4.9993 1.7768 0. 1
 -15 1 1 2 0 0 1.65829 -3.53445 2.56483 4.99784 1.7768 0. -1
</event>
<event>
 4 80 1 -1 -1 -1
 11 -1 0 0 0 0 0 0 5 5 0 0. 9.
 -11 -1 0 0 0 0 0 0 -5 5 0 0. 9.
 15 1 1 2 0 0 -1.8736 -0.586738 -4.24118 5 1.7768 0. -1
 -15 1 1 2 0 0 1.8736 0.586738 4.24118 5 1.7768 0. 1
</event>
<event>
 4 80 1 -1 -1 -1
 11 -1 0 0 0 0 0 0 5 5 0 0. 9.
 -11 -1 0 0 0 0 0 0 -5 5 0 0. 9.
 15 1 1 2 0 0 -1.1119 2.23577 3.95061 5 1.7768 0. -1
 -15 1 1 2 0 0 1.1119 -2.23577 -3.95061 5 1.7768 0. 1
</event>
<event>
 4 80 1 -1 -1 -1
 11 -1 0 0 0 0 0 0 5 5 0 0. 9.
 -11 -1 0 0 0 0 0 0 -0.769969 0.769969 0 0. 9.
 15 1 1 2 0 0 -0.0474705 -0.0711657 0.898262 1.99297 1.7768 0. 1
 -15 1 1 2 0 0 0.0474705 0.0711657 3.33177 3.777 1.7768 0. -1
</event>
<event>
 4 80 1 -1 -1 -1
 11 -1 0 0 0 0 0 0 5 5 0 0. 9.
 -11 -1 0 0 0 0 0 0 -5 5 0 0. 9.
 15 1 1 2 0 0 -3.25081 1.49354 -3.0073 5 1.7768 0. -1
 -15 1 1 2 0 0 3.25081 -1.49354 3.0073 5 1.7768 0. 1
</event>
<event>
 4 80 1 -1 -1 -1
 11 -1 0 0 0 0 0 0 3.20339 3.20339 0 0. 9.
 -11 -1 0 0 0 0 0 0 -4.99998 4.99998 0 0. 9.
 15 1 1 2 0 0 -3.37762 0.439184 0.251205 3.84994 1.7768 0. -1
 -15 1 1 2 0 0 3.37762 -0.439184 -2.04779 4.35344 1.7768 0. 1
</event>
<event>
 4 80 1 -1 -1 -1
 11 -1 0 0 0 0 0 0 5 5 0 0. 9.
 -11 -1 0 0 0 0 0 0 -5 5 0 0. 9.
 15 1 1 2 0 0 1.69312 1.73837 3.99421 5 1.7768 0. -1
 -15 1 1 2 0 0 -1.69312 -1.73837 -3.99421 5 1.7768 0. 1
</event>
<event>
 4 80 1 -1 -1 -1
 11 -1 0 0 0 0 0 0 5 5 0 0. 9.
 -11 -1 0 0 0 0 0 0 -4.99884 4.99884 0 0. 9.
 15 1 1 2 0 0 -1.09654 -1.74965 4.19257 4.99991 1.7768 0. -1
 -15 1 1 2 0 0 1.09654 1.74965 -4.19142 4.99894 1.7768 0. 1
</event>
<event>
 4 80 1 -1 -1 -1
 11 -1 0 0 0 0 0 0 4.99999 4.99999 0 0. 9.
 -11 -1 0 0 0 0 0 0 -5 5 0 0. 9.
 15 1 1 2 0 0 3.77408 2.73598 -0.336125 5 1.7768 0. 1
 -15 1 1 2 0 0 -3.77408 -2.73598 0.336115 4.99999 1.7768 0. -1
</event>
<event>
 4 80 1 -1 -1 -1
 11 -1 0 0 0 0 0 0 5 5 0 0. 9.
 -11 -1 0 0 0 0 0 0 -4.94126 4.94126 0 0. 9.
 15 1 1 2 0 0 -0.893289 -3.97498 2.25429 4.98378 1.7768 0. -1
 -15 1 1 2 0 0 0.893289 3.97498 -2.19555 4.95748 1.7768 0. 1
</event>
<event>
 4 80 1 -1 -1 -1
 11 -1 0 0 0 0 0 0 5 5 0 0. 9.
 -11 -1 0 0 0 0 0 0 -5 5 0 0. 9.
 15 1 1 2 0 0 3.62171 1.82288 -2.32435 5 1.7768 0. 1
 -15 1 1 2 0 0 -3.62171 -1.82288 2.32435 5 1.7768 0. -1
</event>
<event>
 4 80 1 -1 -1 -1
 11 -1 0 0 0 0 0 0 3.32243 3.32243 0 0. 9.
 -11 -1 0 0 0 0 0 0 -4.99862 4.99862 0 0. 9.
 15 1 1 2 0 0 -2.11447 -2.96341 -0.384896 4.06923 1.7768 0. -1
 -15 1 1 2 0 0 2.11447 2.96341 -1.29129 4.25182 1.7768 0. 1
</event>
<event>
 4 80 1 -1 -1 -1
 11 -1 0 0 0 0 0 0 4.99999 4.99999 0 0. 9.
 -11 -1 0 0 0 0 0 0 -5 5 0 0. 9.
 15 1 1 2 0 0 -1.4797 -3.99461 -1.92246 5 1.7768 0. 1
 -15 1 1 2 0 0 1.4797 3.99461 1.92245 5 1.7768 0. -1
</event>
<event>
 4 80 1 -1 -1 -1
 11 -1 0 0 0 0 0 0 5 5 0 0. 9.
 -11 -1 0 0 0 0 0 0 -4.70012 4.70012 0 0. 9.
 15 1 1 2 0 0 -2.07913 2.99654 2.80467 4.93213 1.7768 0. 1
 -15 1 1 2 0 0 2.07913 -2.99654 -2.50479 4.76799 1.7768 0. -1
</event>
<event>
 4 80 1 -1 -1 -1
 11 -1 0 0 0 0 0 0 5 5 0 0. 9.
 -11 -1 0 0 0 0 0 0 -4.999 4.999 0 0. 9.
 15 1 1 2 0 0 0.865472 4.44658 -1.14676 4.99939 1.7768 0. 1
 -15 1 1 2 0 0 -0.865472 -4.44658 1.14775 4.99962 1.7768 0. -1
</event>
<event>
 4 80 1 -1 -1 -1
 11 -1 0 0 0 0 0 0 5 5 0 0. 9.
 -11 -1 0 0 0 0 0 0 -5 5 0 0. 9.
 15 1 1 2 0 0 2.46135 1.90921 -3.4841 5 1.7768 0. -1
 -15 1 1 2 0 0 -2.46135 -1.90921 3.4841 5 1.7768 0. 1
</event>
<event>
 4 80 1 -1 -1 -1
 11 -1 0 0 0 0 0 0 4.99998 4.99998 0 0. 9.
 -11 -1 0 0 0 0 0 0 -4.99733 4.99733 0 0. 9.
 15 1 1 2 0 0 3.22028 -3.24654 -0.95712 4.99841 1.7768 0. -1
 -15 1 1 2 0 0 -3.22028 3.24654 0.95977 4.99891 1.7768 0. 1
</event>
<event>
 4 80 1 -1 -1 -1
 11 -1 0 0 0 0 0 0 5 5 0 0. 9.
 -11 -1 0 0 0 0 0 0 -5 5 0 0. 9.
 15 1 1 2 0 0 3.67287 -1.16672 2.64407 5 1.7768 0. 1
 -15 1 1 2 0 0 -3.67287 1.16672 -2.64407 5 1.7768 0. -1
</event>
<event>
 4 80 1 -1 -1 -1
 11 -1 0 0 0 0 0 0 5 5 0 0. 9.
 -11 -1 0 0 0 0 0 0 -4.50347 4.50347 0 0. 9.
 15 1 1 2 0 0 -3.44969 -2.06119 -1.54603 4.65799 1.7768 0. 1
 -15 1 1 2 0 0 3.44969 2.06119 2.04257 4.84548 1.7768 0. -1
</event>
<event>
 4 80 1 -1 -1 -1
 11 -1 0 0 0 0 0 0 5 5 0 0. 9.
 -11 -1 0 0 0 0 0 0 -4.99975 4.99975 0 0. 9.
 15 1 1 2 0 0 2.63588 1.7087 3.4604 4.99996 1.7768 0. -1
 -15 1 1 2 0 0 -2.63588 -1.7087 -3.46014 4.99979 1.7768 0. 1
</event>
<event>
 4 80 1 -1 -1 -1
 11 -1 0 0 0 0 0 0 4.88685 4.88685 0 0. 9.
 -11 -1 0 0 0 0 0 0 -5 5 0 0. 9.
 15 1 1 2 0 0 1.7069 -2.37057 -3.6266 4.98428 1.7768 0. 1
 -15 1 1 2 0 0 -1.7069 2.37057 3.51346 4.90257 1.7768 0. -1
</event>
<event>
 4 80 1 -1 -1 -1
 11 -1 0 0 0 0 0 0 5 5 0 0. 9.
 -11 -1 0 0 0 0 0 0 -4.99872 4.99872 0 0. 9.
 15 1 1 2 0 0 -3.23024 1.08337 -3.19744 4.99895 1.7768 0. 1
 -15 1 1 2 0 0 3.23024 -1.08337 3.19872 4.99977 1.7768 0. -1
</event>
<event>
 4 80 1 -1 -1 -1
 11 -1 0 0 0 0 0 0 5 5 0 0. 9.
 -11 -1 0 0 0 0 0 0 -4.99997 4.99997 0 0. 9.
 15 1 1 2 0 0 0.440444 -3.55395 -3.00292 4.99998 1.7768 0. -1
 -15 1 1 2 0 0 -0.440444 3.55395 3.00295 4.99999 1.7768 0. 1
</event>
<event>
 4 80 1 -1 -1 -1
 11 -1 0 0 0 0 0 0 5 5 0 0. 9.
 -11 -1 0 0 0 0 0 0 -5 5 0 0. 9.
 15 1 1 2 0 0 3.41782 1.22861 -2.94131 5 1.7768 0. -1
 -15 1 1 2 0 0 -3.41782 -1.22861 2.94131 5 1.7768 0. 1
</event>
<event>
 4 80 1 -1 -1 -1
 11 -1 0 0 0 0 0 0 1.89855 1.89855 0 0. 9.
 -11 -1 0 0 0 0 0 0 -4.81651 4.81651 0 0. 9.
 15 1 1 2 0 0 0.245201 1.6663 -3.42957 4.21383 1.7768 0. -1
 -15 1 1 2 0 0 -0.245201 -1.6663 0.511604 2.50123 1.7768 0. 1
</event>
<event>
 4 80 1 -1 -1 -1
 11 -1 0 0 0 0 0 0 4.95335 4.95335 0 0. 9.
 -11 -1 0 0 0 0 0 0 -5 5 0 0. 9.
 15 1 1 2 0 0 -0.314554 4.56822 0.777583 4.97292 1.7768 0. 1
 -15 1 1 2 0 0 0.314554 -4.56822 -0.824233 4.98043 1.7768 0. -1
</event>
<event>
 4 80 1 -1 -1 -1
 11 -1 0 0 0 0 0 0 4.99999 4.99999 0 0. 9.
 -11 -1 0 0 0 0 0 0 -4.99077 4.99077 0 0. 9.
 15 1 1 2 0 0 0.906785 2.22579 -3.99785 4.99169 1.7768 0. -1
 -15 1 1 2 0 0 -0.906785 -2.22579 4.00707 4.99908 1.7768 0. 1
</event>
<event>
 4 80 1 -1 -1 -1
 11 -1 0 0 0 0 0 0 5 5 0 0. 9.
 -11 -1 0 0 0 0 0 0 -4.99999 4.99999 0 0. 9.
 15 1 1 2 0 0 -2.68881 3.78971 -0.500601 4.99999 1.7768 0. 1
 -15 1 1 2 0 0 2.68881 -3.78971 0.500615 4.99999 1.7768 0. -1
</event>
<event>
 4 80 1 -1 -1 -1
 11 -1 0 0 0 0 0 0 5 5 0 0. 9.
 -11 -1 0 0 0 0 0 0 -4.48435 4.48435 0 0. 9.
 15 1 1 2 0 0 -0.374682 -0.013613 4.63734 4.98028 1.7768 0. 1
 -15 1 1 2 0 0 0.374682 0.013613 -4.12169 4.50407 1.7768 0. -1
</event>
<event>
 4 80 1 -1 -1 -1
 11 -1 0 0 0 0 0 0 4.99427 4.99427 0 0. 9.
 -11 -1 0 0 0 0 0 0 -5 5 0 0. 9.
 15 1 1 2 0 0 -1.46532 3.87784 -2.15433 4.99837 1.7768 0. -1
 -15 1 1 2 0 0 1.46532 -3.87784 2.1486 4.9959 1.7768 0. 1
</event>
<event>
 4 80 1 -1 -1 -1
 11 -1 0 0 0 0 0 0 5 5 0 0. 9.
 -11 -1 0 0 0 0 0 0 -4.99863 4.99863 0 0. 9.
 15 1 1 2 0 0 -0.969133 4.29884 -1.55373 4.9991 1.7768 0. -1
 -15 1 1 2 0 0 0.969133 -4.29884 1.5551 4.99953 1.7768 0. 1
</event>
<event>
 4 80 1 -1 -1 -1
 11 -1 0 0 0 0 0 0 5 5 0 0. 9.
 -11 -1 0 0 0 0 0 0 -5 5 0 0. 9.
 15 1 1 2 0 0 4.4244 -1.17829 0.937313 5 1.7768 0. -1
 -15 1 1 2 0 0 -4.4244 1.17829 -0.937308 5 1.7768 0. 1
</event>
<event>
 4 80 1 -1 -1 -1
 11 -1 0 0 0 0 0 0 4.99848 4.99848 0 0. 9.
 -11 -1 0 0 0 0 0 0 -5 5 0 0. 9.
 15 1 1 2 0 0 0.452845 4.39474 1.52105 4.99901 1.7768 0. -1
 -15 1 1 2 0 0 -0.452845 -4.39474 -1.52256 4.99947 1.7768 0. 1
</event>
<event>
 4 80 1 -1 -1 -1
 11 -1 0 0 0 0 0 0 4.99999 4.99999 0 0. 9.
 -11 -1 0 0 0 0 0 0 -5 5 0 0. 9.
 15 1 1 2 0 0 0.841447 -0.612782 4.55616 4.99999 1.7768 0. 1
 -15 1 1 2 0 0 -0.841447 0.612782 -4.55617 5 1.7768 0. -1
</event>
<event>
 4 80 1 -1 -1 -1
 11 -1 0 0 0 0 0 0 4.99986 4.99986 0 0. 9.
 -11 -1 0 0 0 0 0 0 -5 5 0 0. 9.
 15 1 1 2 0 0 -0.405715 2.18342 -4.1122 4.99999 1.7768 0. 1
 -15 1 1 2 0 0 0.405715 -2.18342 4.11206 4.99987 1.7768 0. -1
</event>
<event>
 4 80 1 -1 -1 -1
 11 -1 0 0 0 0 0 0 5 5 0 0. 9.
 -11 -1 0 0 0 0 0 0 -5 5 0 0. 9.
 15 1 1 2 0 0 0.653517 3.82302 -2.60762 5 1.7768 0. -1
 -15 1 1 2 0 0 -0.653517 -3.82302 2.60762 5 1.7768 0. 1
</event>
<event>
 4 80 1 -1 -1 -1
 11 -1 0 0 0 0 0 0 3.1405 3.1405 0 0. 9.
 -11 -1 0 0 0 0 0 0 -4.99945 4.99945 0 0. 9.
 15 1 1 2 0 0 2.15997 1.74112 -3.19061 4.58636 1.7768 0. -1
 -15 1 1 2 0 0 -2.15997 -1.74112 1.33166 3.55359 1.7768 0. 1
</event>
<event>
 4 80 1 -1 -1 -1
 11 -1 0 0 0 0 0 0 5 5 0 0. 9.
 -11 -1 0 0 0 0 0 0 -5 5 0 0. 9.
 15 1 1 2 0 0 3.6625 -2.89748 -0.181563 5 1.7768 0. 1
 -15 1 1 2 0 0 -3.6625 2.89748 0.181563 5 1.7768 0. -1
</event>
<event>
 4 80 1 -1 -1 -1
 11 -1 0 0 0 0 0 0 2.97993 2.97993 0 0. 9.
 -11 -1 0 0 0 0 0 0 -5 5 0 0. 9.
 15 1 1 2 0 0 -2.22998 0.168816 1.67365 3.31061 1.7768 0. 1
 -15 1 1 2 0 0 2.22998 -0.168816 -3.69371 4.66932 1.7768 0. -1
</event>
<event>
 4 80 1 -1 -1 -1
 11 -1 0 0 0 0 0 0 2.05267 2.05267 0 0. 9.
 -11 -1 0 0 0 0 0 0 -5 5 0 0. 9.
 15 1 1 2 0 0 0.35672 -1.11189 1.16396 2.42407 1.7768 0. 1
 -15 1 1 2 0 0 -0.35672 1.11189 -4.11129 4.62861 1.7768 0. -1
</event>
<event>
 4 80 1 -1 -1 -1
 11 -1 0 0 0 0 0 0 5 5 0 0. 9.
 -11 -1 0 0 0 0 0 0 -5 5 0 0. 9.
 15 1 1 2 0 0 -4.21155 -0.129333 -2.02197 5 1.7768 0. 1
 -15 1 1 2 0 0 4.21155 0.129333 2.02197 5 1.7768 0. -1
</event>
<event>
 4 80 1 -1 -1 -1
 11 -1 0 0 0 0 0 0 5 5 0 0. 9.
 -11 -1 0 0 0 0 0 0 -5 5 0 0. 9.
 15 1 1 2 0 0 3.69333 2.32081 -1.67792 5 1.7768 0. 1
 -15 1 1 2 0 0 -3.69333 -2.32081 1.67792 5 1.7768 0. -1
</event>
<event>
 4 80 1 -1 -1 -1
 11 -1 0 0 0 0 0 0 5 5 0 0. 9.
 -11 -1 0 0 0 0 0 0 -5 5 0 0. 9.
 15 1 1 2 0 0 -4.60056 0.414363 0.710959 5 1.7768 0. 1
 -15 1 1 2 0 0 4.60056 -0.414363 -0.710959 5 1.7768 0. -1
</event>
<event>
 4 80 1 -1 -1 -1
 11 -1 0 0 0 0 0 0 5 5 0 0. 9.
 -11 -1 0 0 0 0 0 0 -4.99687 4.99687 0 0. 9.
 15 1 1 2 0 0 0.205467 -1.8647 -4.27713 4.99709 1.7768 0. -1
 -15 1 1 2 0 0 -0.205467 1.8647 4.28026 4.99977 1.7768 0. 1
</event>
<event>
 4 80 1 -1 -1 -1
 11 -1 0 0 0 0 0 0 4.95368 4.95368 0 0. 9.
 -11 -1 0 0 0 0 0 0 -5 5 0 0. 9.
 15 1 1 2 0 0 -1.97409 -4.15611 -0.68676 4.97993 1.7768 0. 1
 -15 1 1 2 0 0 1.97409 4.15611 0.640443 4.97375 1.7768 0. -1
</event>
<event>
 4 80 1 -1 -1 -1
 11 -1 0 0 0 0 0 0 5 5 0 0. 9.
 -11 -1 0 0 0 0 0 0 -4.87481 4.87481 0 0. 9.
 15 1 1 2 0 0 -0.227039 -2.97434 3.57259 4.9819 1.7768 0. -1
 -15 1 1 2 0 0 0.227039 2.97434 -3.4474 4.8929 1.7768 0. 1
</event>
<event>
 4 80 1 -1 -1 -1
 11 -1 0 0 0 0 0 0 5 5 0 0. 9.
 -11 -1 0 0 0 0 0 0 -5 5 0 0. 9.
 15 1 1 2 0 0 2.06849 -4.00604 1.23096 5 1.7768 0. -1
 -15 1 1 2 0 0 -2.06849 4.00604 -1.23096 5 1.7768 0. 1
</event>
<event>
 4 80 1 -1 -1 -1
 11 -1 0 0 0 0 0 0 4.99954 4.99954 0 0. 9.
 -11 -1 0 0 0 0 0 0 -5 5 0 0. 9.
 15 1 1 2 0 0 -1.52476 4.10812 -1.62456 4.99985 1.7768 0. -1
 -15 1 1 2 0 0 1.52476 -4.10812 1.62411 4.9997 1.7768 0. 1
</event>
<event>
 4 80 1 -1 -1 -1
 11 -1 0 0 0 0 0 0 5 5 0 0. 9.
 -11 -1 0 0 0 0 0 0 -5 5 0 0. 9.
 15 1 1 2 0 0 -2.97944 3.45284 1.0213 5 1.7768 0. -1
 -15 1 1 2 0 0 2.97944 -3.45284 -1.0213 5 1.7768 0. 1
</event>
<event>
 4 80 1 -1 -1 -1
 11 -1 0 0 0 0 0 0 5 5 0 0. 9.
 -11 -1 0 0 0 0 0 0 -5 5 0 0. 9.
 15 1 1 2 0 0 -0.58248 2.80338 3.69378 5 1.7768 0. 1
 -15 1 1 2 0 0 0.58248 -2.80338 -3.69378 5 1.7768 0. -1
</event>
<event>
 4 80 1 -1 -1 -1
 11 -1 0 0 0 0 0 0 4.99995 4.99995 0 0. 9.
 -11 -1 0 0 0 0 0 0 -5 5 0 0. 9.
 15 1 1 2 0 0 3.45522 -1.33647 -2.84911 4.99999 1.7768 0. 1
 -15 1 1 2 0 0 -3.45522 1.33647 2.84905 4.99996 1.7768 0. -1
</event>
<event>
 4 80 1 -1 -1 -1
 11 -1 0 0 0 0 0 0 4.99992 4.99992 0 0. 9.
 -11 -1 0 0 0 0 0 0 -5 5 0 0. 9.
 15 1 1 2 0 0 3.99092 2.41929 0.247746 4.99996 1.7768 0. 1
 -15 1 1 2 0 0 -3.99092 -2.41929 -0.247828 4.99996 1.7768 0. -1
</event>
<event>
 4 80 1 -1 -1 -1
 11 -1 0 0 0 0 0 0 4.99953 4.99953 0 0. 9.
 -11 -1 0 0 0 0 0 0 -5 5 0 0. 9.
 15 1 1 2 0 0 3.95149 -2.44749 0.484979 4.99974 1.7768 0. 1
 -15 1 1 2 0 0 -3.95149 2.44749 -0.48545 4.99979 1.7768 0. -1
</event>
<event>
 4 80 1 -1 -1 -1
 11 -1 0 0 0 0 0 0 5 5 0 0. 9.
 -11 -1 0 0 0 0 0 0 -4.69305 4.69305 0 0. 9.
 15 1 1 2 0 0 -2.76641 3.55668 0.0857572 4.84438 1.7768 0. -1
 -15 1 1 2 0 0 2.76641 -3.55668 0.221189 4.84867 1.7768 0. 1
</event>
<event>
 4 80 1 -1 -1 -1
 11 -1 0 0 0 0 0 0 4.97378 4.97378 0 0. 9.
 -11 -1 0 0 0 0 0 0 -5 5 0 0. 9.
 15 1 1 2 0 0 2.45897 2.82416 2.75977 4.9796 1.7768 0. -1
 -15 1 1 2 0 0 -2.45897 -2.82416 -2.78599 4.99418 1.7768 0. 1
</event>
<event>
 4 80 1 -1 -1 -1
 11 -1 0 0 0 0 0 0 5 5 0 0. 9.
 -11 -1 0 0 0 0 0 0 -5 5 0 0. 9.
 15 1 1 2 0 0 -3.89418 2.38435 0.996248 5 1.7768 0. 1
 -15 1 1 2 0 0 3.89418 -2.38435 -0.996248 5 1.7768 0. -1
</event>
<event>
 4 80 1 -1 -1 -1
 11 -1 0 0 0 0 0 0 5 5 0 0. 9.
 -11 -1 0 0 0 0 0 0 -4.99997 4.99997 0 0. 9.
 15 1 1 2 0 0 -0.731634 4.60767 -0.276107 4.99999 1.7768 0. 1
 -15 1 1 2 0 0 0.731634 -4.60767 0.276135 4.99999 1.7768 0. -1
</event>
<event>
 4 80 1 -1 -1 -1
 11 -1 0 0 0 0 0 0 4.99996 4.99996 0 0. 9.
 -11 -1 0 0 0 0 0 0 -4.99995 4.99995 0 0. 9.
 15 1 1 2 0 0 -2.64296 2.99014 2.43221 4.99995 1.7768 0. 1
 -15 1 1 2 0 0 2.64296 -2.99014 -2.43221 4.99995 1.7768 0. -1
</event>
<event>
 4 80 1 -1 -1 -1
 11 -1 0 0 0 0 0 0 5 5 0 0. 9.
 -11 -1 0 0 0 0 0 0 -5 5 0 0. 9.
 15 1 1 2 0 0 3.33216 -0.661144 -3.20965 5 1.7768 0. -1
 -15 1 1 2 0 0 -3.33216 0.661144 3.20966 5 1.7768 0. 1
</event>
<event>
 4 80 1 -1 -1 -1
 11 -1 0 0 0 0 0 0 5 5 0 0. 9.
 -11 -1 0 0 0 0 0 0 -5 5 0 0. 9.
 15 1 1 2 0 0 1.13696 0.403813 -4.51514 5 1.7768 0. 1
 -15 1 1 2 0 0 -1.13696 -0.403813 4.51514 5 1.7768 0. -1
</event>
<event>
 4 80 1 -1 -1 -1
 11 -1 0 0 0 0 0 0 4.99987 4.99987 0 0. 9.
 -11 -1 0 0 0 0 0 0 -4.76274 4.76274 0 0. 9.
 15 1 1 2 0 0 -0.987209 -2.87369 -3.26218 4.79918 1.7768 0. -1
 -15 1 1 2 0 0 0.987209 2.87369 3.49931 4.96342 1.7768 0. 1
</event>
<event>
 4 80 1 -1 -1 -1
 11 -1 0 0 0 0 0 0 5 5 0 0. 9.
 -11 -1 0 0 0 0 0 0 -5 5 0 0. 9.
 15 1 1 2 0 0 0.573672 4.61371 -0.47631 5 1.7768 0. 1
 -15 1 1 2 0 0 -0.573672 -4.61371 0.47631 5 1.7768 0. -1
</event>
<event>
 4 80 1 -1 -1 -1
 11 -1 0 0 0 0 0 0 5 5 0 0. 9.
 -11 -1 0 0 0 0 0 0 -4.99971 4.99971 0 0. 9.
 15 1 1 2 0 0 1.62911 -3.00956 -3.18252 4.99976 1.7768 0. -1
 -15 1 1 2 0 0 -1.62911 3.00956 3.18281 4.99995 1.7768 0. 1
</event>
<event>
 4 80 1 -1 -1 -1
 11 -1 0 0 0 0 0 0 5 5 0 0. 9.
 -11 -1 0 0 0 0 0 0 -5 5 0 0. 9.
 15 1 1 2 0 0 -1.49279 4.37584 -0.682549 5 1.7768 0. -1
 -15 1 1 2 0 0 1.49279 -4.37584 0.68255 5 1.7768 0. 1
</event>
<event>
 4 80 1 -1 -1 -1
 11 -1 0 0 0 0 0 0 5 5 0 0. 9.
 -11 -1 0 0 0 0 0 0 -2.00496 2.00496 0 0. 9.
 15 1 1 2 0 0 0.400905 -0.342003 -1.34209 2.28837 1.7768 0. -1
 -15 1 1 2 0 0 -0.400905 0.342003 4.33714 4.71659 1.7768 0. 1
</event>
<event>
 4 80 1 -1 -1 -1
 11 -1 0 0 0 0 0 0 4.99997 4.99997 0 0. 9.
 -11 -1 0 0 0 0 0 0 -5 5 0 0. 9.
 15 1 1 2 0 0 3.22377 1.63826 -2.96068 4.99999 1.7768 0. 1
 -15 1 1 2 0 0 -3.22377 -1.63826 2.96066 4.99998 1.7768 0. -1
</event>
<event>
 4 80 1 -1 -1 -1
 11 -1 0 0 0 0 0 0 5 5 0 0. 9.
 -11 -1 0 0 0 0 0 0 -4.99994 4.99994 0 0. 9.
 15 1 1 2 0 0 -3.48996 2.83158 1.28233 4.99998 1.7768 0. 1
 -15 1 1 2 0 0 3.48996 -2.83158 -1.28227 4.99996 1.7768 0. -1
</event>
<event>
 4 80 1 -1 -1 -1
 11 -1 0 0 0 0 0 0 4.99998 4.99998 0 0. 9.
 -11 -1 0 0 0 0 0 0 -5 5 0 0. 9.
 15 1 1 2 0 0 -0.848403 -1.62382 -4.2995 5 1.7768 0. 1
 -15 1 1 2 0 0 0.848403 1.62382 4.29947 4.99998 1.7768 0. -1
</event>
<event>
 4 80 1 -1 -1 -1
 11 -1 0 0 0 0 0 0 5 5 0 0. 9.
 -11 -1 0 0 0 0 0 0 -4.99915 4.99915 0 0. 9.
 15 1 1 2 0 0 -3.58664 -0.772681 2.89473 4.99982 1.7768 0. -1
 -15 1 1 2 0 0 3.58664 0.772681 -2.89388 4.99933 1.7768 0. 1
</event>
<event>
 4 80 1 -1 -1 -1
 11 -1 0 0 0 0 0 0 5 5 0 0. 9.
 -11 -1 0 0 0 0 0 0 -4.99999 4.99999 0 0. 9.
 15 1 1 2 0 0 0.57998 4.63735 0.0278032 4.99999 1.7768 0. -1
 -15 1 1 2 0 0 -0.57998 -4.63735 -0.0277893 4.99999 1.7768 0. 1
</event>
<event>
 4 80 1 -1 -1 -1
 11 -1 0 0 0 0 0 0 5 5 0 0. 9.
 -11 -1 0 0 0 0 0 0 -4.99852 4.99852 0 0. 9.
 15 1 1 2 0 0 -2.1117 2.78723 3.10025 4.99972 1.7768 0. -1
 -15 1 1 2 0 0 2.1117 -2.78723 -3.09877 4.9988 1.7768 0. 1
</event>
<event>
 4 80 1 -1 -1 -1
 11 -1 0 0 0 0 0 0 4.99879 4.99879 0 0. 9.
 -11 -1 0 0 0 0 0 0 -4.99998 4.99998 0 0. 9.
 15 1 1 2 0 0 -3.34685 1.81281 2.7102 4.99906 1.7768 0. -1
 -15 1 1 2 0 0 3.34685 -1.81281 -2.71139 4.9997 1.7768 0. 1
</event>
<event>
 4 80 1 -1 -1 -1
 11 -1 0 0 0 0 0 0 0.955237 0.955237 0 0. 9.
 -11 -1 0 0 0 0 0 0 -4.99943 4.99943 0 0. 9.
 15 1 1 2 0 0 0.383858 -1.10242 -1.33379 2.50986 1.7768 0. -1
 -15 1 1 2 0 0 -0.383858 1.10242 -2.7104 3.44481 1.7768 0. 1
</event>
<event>
 4 80 1 -1 -1 -1
 11 -1 0 0 0 0 0 0 5 5 0 0. 9.
 -11 -1 0 0 0 0 0 0 -5 5 0 0. 9.
 15 1 1 2 0 0 -3.28378 -2.86183 -1.6938 5 1.7768 0. -1
 -15 1 1 2 0 0 3.28378 2.86183 1.6938 5 1.7768 0. 1
</event>
<event>
 4 80 1 -1 -1 -1
 11 -1 0 0 0 0 0 0 5 5 0 0. 9.
 -11 -1 0 0 0 0 0 0 -5 5 0 0. 9.
 15 1 1 2 0 0 -3.92368 -1.78326 1.80749 5 1.7768 0. -1
 -15 1 1 2 0 0 3.92368 1.78326 -1.80749 5 1.7768 0. 1
</event>
<event>
 4 80 1 -1 -1 -1
 11 -1 0 0 0 0 0 0 4.71683 4.71683 0 0. 9.
 -11 -1 0 0 0 0 0 0 -5 5 0 0. 9.
 15 1 1 2 0 0 3.90563 1.80827 -1.52154 4.89863 1.7768 0. -1
 -15 1 1 2 0 0 -3.90563 -1.80827 1.23837 4.8182 1.7768 0. 1
</event>
<event>
 4 80 1 -1 -1 -1
 11 -1 0 0 0 0 0 0 4.99919 4.99919 0 0. 9.
 -11 -1 0 0 0 0 0 0 -4.74857 4.74857 0 0. 9.
 15 1 1 2 0 0 3.87626 1.67444 1.78481 4.91655 1.7768 0. -1
 -15 1 1 2 0 0 -3.87626 -1.67444 -1.53419 4.83121 1.7768 0. 1
</event>
<event>
 4 80 1 -1 -1 -1
 11 -1 0 0 0 0 0 0 5 5 0 0. 9.
 -11 -1 0 0 0 0 0 0 -4.99936 4.99936 0 0. 9.
 15 1 1 2 0 0 -2.23317 -0.133507 -4.10263 4.99942 1.7768 0. 1
 -15 1 1 2 0 0 2.23317 0.133507 4.10327 4.99994 1.7768 0. -1
</event>
<event>
 4 80 1 -1 -1 -1
 11 -1 0 0 0 0 0 0 4.92888 4.92888 0 0. 9.
 -11 -1 0 0 0 0 0 0 -5 5 0 0. 9.
 15 1 1 2 0 0 -4.39848 1.35478 -0.587497 4.96839 1.7768 0. -1
 -15 1 1 2 0 0 4.39848 -1.35478 0.516374 4.96048 1.7768 0. 1
</event>
<event>
 4 80 1 -1 -1 -1
 11 -1 0 0 0 0 0 0 5 5 0 0. 9.
 -11 -1 0 0 0 0 0 0 -5 5 0 0. 9.
 15 1 1 2 0 0 -1.58017 3.23413 2.9809 5 1.7768 0. 1
 -15 1 1 2 0 0 1.58017 -3.23413 -2.9809 5 1.7768 0. -1
</event>
<event>
 4 80 1 -1 -1 -1
 11 -1 0 0 0 0 0 0 4.99992 4.99992 0 0. 9.
 -11 -1 0 0 0 0 0 0 -5 5 0 0. 9.
 15 1 1 2 0 0 0.769725 -4.08126 -2.14311 4.99998 1.7768 0. 1
 -15 1 1 2 0 0 -0.769725 4.08126 2.14303 4.99995 1.7768 0. -1
</event>
<event>
 4 80 1 -1 -1 -1
 11 -1 0 0 0 0 0 0 4.99147 4.99147 0 0. 9.
 -11 -1 0 0 0 0 0 0 -5 5 0 0. 9.
 15 1 1 2 0 0 -0.223431 4.51482 -1.17308 4.99673 1.7768 0. -1
 -15 1 1 2 0 0 0.223431 -4.51482 1.16454 4.99474 1.7768 0. 1
</event>
<event>
 4 80 1 -1 -1 -1
 11 -1 0 0 0 0 0 0 4.9995 4.9995 0 0. 9.
 -11 -1 0 0 0 0 0 0 -3.98103 3.98103 0 0. 9.
 15 1 1 2 0 0 -2.76267 -0.710015 -2.44392 4.15535 1.7768 0. 1
 -15 1 1 2 0 0 2.76267 0.710015 3.46239 4.82518 1.7768 0. -1
</event>
<event>
 4 80 1 -1 -1 -1
 11 -1 0 0 0 0 0 0 5 5 0 0. 9.
 -11 -1 0 0 0 0 0 0 -5 5 0 0. 9.
 15 1 1 2 0 0 3.85494 -0.490177 2.59643 5 1.7768 0. 1
 -15 1 1 2 0 0 -3.85494 0.490177 -2.59643 5 1.7768 0. -1
</event>
<event>
 4 80 1 -1 -1 -1
 11 -1 0 0 0 0 0 0 2.57655 2.57655 0 0. 9.
 -11 -1 0 0 0 0 0 0 -5 5 0 0. 9.
 15 1 1 2 0 0 -2.13231 -2.26317 -0.961227 3.70815 1.7768 0. 1
 -15 1 1 2 0 0 2.13231 2.26317 -1.46222 3.8684 1.7768 0. -1
</event>
<event>
 4 80 1 -1 -1 -1
 11 -1 0 0 0 0 0 0 4.7422 4.7422 0 0. 9.
 -11 -1 0 0 0 0 0 0 -5 5 0 0. 9.
 15 1 1 2 0 0 1.75637 4.17579 0.0476928 4.86643 1.7768 0. -1
 -15 1 1 2 0 0 -1.75637 -4.17579 -0.305494 4.87577 1.7768 0. 1
</event>
<event>
 4 80 1 -1 -1 -1
 11 -1 0 0 0 0 0 0 5 5 0 0. 9.
 -11 -1 0 0 0 0 0 0 -5 5 0 0. 9.
 15 1 1 2 0 0 -1.90585 -0.578902 4.22787 5 1.7768 0. -1
 -15 1 1 2 0 0 1.90585 0.578902 -4.22787 5 1.7768 0. 1
</event>
<event>
 4 80 1 -1 -1 -1
 11 -1 0 0 0 0 0 0 4.99995 4.99995 0 0. 9.
 -11 -1 0 0 0 0 0 0 -2.07162 2.07162 0 0. 9.
 15 1 1 2 0 0 2.3124 -0.525221 2.84391 4.10714 1.7768 0. -1
 -15 1 1 2 0 0 -2.3124 0.525221 0.0844216 2.96444 1.7768 0. 1
</event>
<event>
 4 80 1 -1 -1 -1
 11 -1 0 0 0 0 0 0 5 5 0 0. 9.
 -11 -1 0 0 0 0 0 0 -4.95818 4.95818 0 0. 9.
 15 1 1 2 0 0 3.48181 2.75317 1.41023 4.98492 1.7768 0. -1
 -15 1 1 2 0 0 -3.48181 -2.75317 -1.36841 4.97325 1.7768 0. 1
</event>
<event>
 4 80 1 -1 -1 -1
 11 -1 0 0 0 0 0 0 4.99999 4.99999 0 0. 9.
 -11 -1 0 0 0 0 0 0 -5 5 0 0. 9.
 15 1 1 2 0 0 3.22133 -0.723727 3.30778 4.99999 1.7768 0. -1
 -15 1 1 2 0 0 -3.22133 0.723727 -3.30779 5 1.7768 0. 1
</event>
<event>
 4 80 1 -1 -1 -1
 11 -1 0 0 0 0 0 0 4.93828 4.93828 0 0. 9.
 -11 -1 0 0 0 0 0 0 -4.97921 4.97921 0 0. 9.
 15 1 1 2 0 0 0.0433346 3.73504 -2.75518 4.97003 1.7768 0. 1
 -15 1 1 2 0 0 -0.0433346 -3.73504 2.71425 4.94745 1.7768 0. -1
</event>
<event>
 4 80 1 -1 -1 -1
 11 -1 0 0 0 0 0 0 3.15141 3.15141 0 0. 9.
 -11 -1 0 0 0 0 0 0 -4.99995 4.99995 0 0. 9.
 15 1 1 2 0 0 0.869821 1.98175 1.96439 3.4206 1.7768 0. 1
 -15 1 1 2 0 0 -0.869821 -1.98175 -3.81293 4.73076 1.7768 0. -1
</event>
<event>
 4 80 1 -1 -1 -1
 11 -1 0 0 0 0 0 0 2.87817 2.87817 0 0. 9.
 -11 -1 0 0 0 0 0 0 -4.99999 4.99999 0 0. 9.
 15 1 1 2 0 0 2.27973 1.22466 -3.27244 4.53471 1.7768 0. 1
 -15 1 1 2 0 0 -2.27973 -1.22466 1.15062 3.34345 1.7768 0. -1
</event>
<event>
 4 80 1 -1 -1 -1
 11 -1 0 0 0 0 0 0 5 5 0 0. 9.
 -11 -1 0 0 0 0 0 0 -4.98916 4.98916 0 0. 9.
 15 1 1 2 0 0 -1.75037 4.13025 1.29587 4.99598 1.7768 0. -1
 -15 1 1 2 0 0 1.75037 -4.13025 -1.28503 4.99318 1.7768 0. 1
</event>
<event>
 4 80 1 -1 -1 -1
 11 -1 0 0 0 0 0 0 4.63707 4.63707 0 0. 9.
 -11 -1 0 0 0 0 0 0 -5 5 0 0. 9.
 15 1 1 2 0 0 2.16749 3.80443 0.74438 4.78367 1.7768 0. 1
 -15 1 1 2 0 0 -2.16749 -3.80443 -1.10731 4.8534 1.7768 0. -1
</event>
<event>
 4 80 1 -1 -1 -1
 11 -1 0 0 0 0 0 0 4.96271 4.96271 0 0. 9.
 -11 -1 0 0 0 0 0 0 -5 5 0 0. 9.
 15 1 1 2 0 0 -2.08364 -3.5104 -2.25279 4.98972 1.7768 0. -1
 -15 1 1 2 0 0 2.08364 3.5104 2.21549 4.97299 1.7768 0. 1
</event>
<event>
 4 80 1 -1 -1 -1
 11 -1 0 0 0 0 0 0 4.25231 4.25231 0 0. 9.
 -11 -1 0 0 0 0 0 0 -4.99963 4.99963 0 0. 9.
 15 1 1 2 0 0 0.899361 0.270035 3.7897 4.28968 1.7768 0. 1
 -15 1 1 2 0 0 -0.899361 -0.270035 -4.53702 4.96227 1.7768 0. -1
</event>
<event>
 4 80 1 -1 -1 -1
 11 -1 0 0 0 0 0 0 4.98205 4.98205 0 0. 9.
 -11 -1 0 0 0 0 0 0 -3.9163 3.9163 0 0. 9.
 15 1 1 2 0 0 -2.40191 1.21837 3.57134 4.81309 1.7768 0. -1
 -15 1 1 2 0 0 2.40191 -1.21837 -2.50559 4.08526 1.7768 0. 1
</event>
<event>
 4 80 1 -1 -1 -1
 11 -1 0 0 0 0 0 0 0.891935 0.891935 0 0. 9.
 -11 -1 0 0 0 0 0 0 -5 5 0 0. 9.
 15 1 1 2 0 0 -0.519994 1.01555 -2.0339 2.93193 1.7768 0. -1
 -15 1 1 2 0 0 0.519994 -1.01555 -2.07417 2.96001 1.7768 0. 1
</event>
<event>
 4 80 1 -1 -1 -1
 11 -1 0 0 0 0 0 0 5 5 0 0. 9.
 -11 -1 0 0 0 0 0 0 -5 5 0 0. 9.
 15 1 1 2 0 0 1.10764 -4.51055 0.519965 5 1.7768 0. -1
 -15 1 1 2 0 0 -1.10764 4.51055 -0.519965 5 1.7768 0. 1
</event>
<event>
 4 80 1 -1 -1 -1
 11 -1 0 0 0 0 0 0 5 5 0 0. 9.
 -11 -1 0 0 0 0 0 0 -4.79147 4.79147 0 0. 9.
 15 1 1 2 0 0 -0.999988 -2.78561 3.57493 4.96965 1.7768 0. 1
 -15 1 1 2 0 0 0.999988 2.78561 -3.3664 4.82182 1.7768 0. -1
</event>
<event>
 4 80 1 -1 -1 -1
 11 -1 0 0 0 0 0 0 1.21232 1.21232 0 0. 9.
 -11 -1 0 0 0 0 0 0 -4.84031 4.84031 0 0. 9.
 15 1 1 2 0 0 1.17685 -0.689513 -0.662264 2.33596 1.7768 0. 1
 -15 1 1 2 0 0 -1.17685 0.689513 -2.96572 3.71667 1.7768 0. -1
</event>
<event>
 4 80 1 -1 -1 -1
 11 -1 0 0 0 0 0 0 5 5 0 0. 9.
 -11 -1 0 0 0 0 0 0 -4.99347 4.99347 0 0. 9.
 15 1 1 2 0 0 3.29219 -1.99022 -2.64441 4.995 1.7768 0. 1
 -15 1 1 2 0 0 -3.29219 1.99022 2.65094 4.99846 1.7768 0. -1
</event>
<event>
 4 80 1 -1 -1 -1
 11 -1 0 0 0 0 0 0 5 5 0 0. 9.
 -11 -1 0 0 0 0 0 0 -5 5 0 0. 9.
 15 1 1 2 0 0 -2.62073 -2.72935 -2.74312 5 1.7768 0. -1
 -15 1 1 2 0 0 2.62073 2.72935 2.74312 5 1.7768 0. 1
</event>
<event>
 4 80 1 -1 -1 -1
 11 -1 0 0 0 0 0 0 4.81985 4.81985 0 0. 9.
 -11 -1 0 0 0 0 0 0 -4.30284 4.30284 0 0. 9.
 15 1 1 2 0 0 -2.23363 3.49487 -0.357398 4.52644 1.7768 0. 1
 -15 1 1 2 0 0 2.23363 -3.49487 0.87441 4.59625 1.7768 0. -1
</event>
<event>
 4 80 1 -1 -1 -1
 11 -1 0 0 0 0 0 0 5 5 0 0. 9.
 -11 -1 0 0 0 0 0 0 -2.54412 2.54412 0 0. 9.
 15 1 1 2 0 0 2.03484 -2.32851 1.20831 3.76567 1.7768 0. 1
 -15 1 1 2 0 0 -2.03484 2.32851 1.24757 3.77845 1.7768 0. -1
</event>
<event>
 4 80 1 -1 -1 -1
 11 -1 0 0 0 0 0 0 5 5 0 0. 9.
 -11 -1 0 0 0 0 0 0 -4.99999 4.99999 0 0. 9.
 15 1 1 2 0 0 -3.98149 -2.43003 -0.291384 5 1.7768 0. -1
 -15 1 1 2 0 0 3.98149 2.43003 0.291392 5 1.7768 0. 1
</event>
<event>
 4 80 1 -1 -1 -1
 11 -1 0 0 0 0 0 0 5 5 0 0. 9.
 -11 -1 0 0 0 0 0 0 -4.99921 4.99921 0 0. 9.
 15 1 1 2 0 0 3.7454 2.73351 -0.581171 4.99956 1.7768 0. -1
 -15 1 1 2 0 0 -3.7454 -2.73351 0.581966 4.99965 1.7768 0. 1
</event>
<event>
 4 80 1 -1 -1 -1
 11 -1 0 0 0 0 0 0 5 5 0 0. 9.
 -11 -1 0 0 0 0 0 0 -1.55572 1.55572 0 0. 9.
 15 1 1 2 0 0 0.947777 -0.528023 -0.458871 2.13199 1.7768 0. -1
 -15 1 1 2 0 0 -0.947777 0.528023 3.90315 4.42373 1.7768 0. 1
</event>
<event>
 4 80 1 -1 -1 -1
 11 -1 0 0 0 0 0 0 4.99567 4.99567 0 0. 9.
 -11 -1 0 0 0 0 0 0 -5 5 0 0. 9.
 15 1 1 2 0 0 -1.86124 4.12587 1.15264 4.99734 1.7768 0. 1
 -15 1 1 2 0 0 1.86124 -4.12587 -1.15697 4.99834 1.7768 0. -1
</event>
<event>
 4 80 1 -1 -1 -1
 11 -1 0 0 0 0 0 0 5 5 0 0. 9.
 -11 -1 0 0 0 0 0 0 -5 5 0 0. 9.
 15 1 1 2 0 0 0.911139 -2.79267 3.63498 5 1.7768 0. -1
 -15 1 1 2 0 0 -0.911139 2.79267 -3.63498 5 1.7768 0. 1
</event>
<event>
 4 80 1 -1 -1 -1
 11 -1 0 0 0 0 0 0 5 5 0 0. 9.
 -11 -1 0 0 0 0 0 0 -5 5 0 0. 9.
 15 1 1 2 0 0 2.19321 -1.06353 3.98761 5 1.7768 0. -1
 -15 1 1 2 0 0 -2.19321 1.06353 -3.98761 5 1.7768 0. 1
</event>
<event>
 4 80 1 -1 -1 -1
 11 -1 0 0 0 0 0 0 4.9959 4.9959 0 0. 9.
 -11 -1 0 0 0 0 0 0 -5 5 0 0. 9.
 15 1 1 2 0 0 -2.1404 4.02839 -1.0083 4.99836 1.7768 0. 1
 -15 1 1 2 0 0 2.1404 -4.02839 1.0042 4.99753 1.7768 0. -1
</event>
<event>
 4 80 1 -1 -1 -1
 11 -1 0 0 0 0 0 0 5 5 0 0. 9.
 -11 -1 0 0 0 0 0 0 -5 5 0 0. 9.
 15 1 1 2 0 0 -1.52197 -1.30745 -4.22096 5 1.7768 0. 1
 -15 1 1 2 0 0 1.52197 1.30745 4.22096 5 1.7768 0. -1
</event>
<event>
 4 80 1 -1 -1 -1
 11 -1 0 0 0 0 0 0 4.99999 4.99999 0 0. 9.
 -11 -1 0 0 0 0 0 0 -4.93973 4.93973 0 0. 9.
 15 1 1 2 0 0 1.61858 -3.66554 2.37217 4.98406 1.7768 0. 1
 -15 1 1 2 0 0 -1.61858 3.66554 -2.31191 4.95566 1.7768 0. -1
</event>
<event>
 4 80 1 -1 -1 -1
 11 -1 0 0 0 0 0 0 5 5 0 0. 9.
 -11 -1 0 0 0 0 0 0 -5 5 0 0. 9.
 15 1 1 2 0 0 2.87316 0.890958 3.57679 5 1.7768 0. -1
 -15 1 1 2 0 0 -2.87316 -0.890958 -3.57679 5 1.7768 0. 1
</event>
<event>
 4 80 1 -1 -1 -1
 11 -1 0 0 0 0 0 0 5 5 0 0. 9.
 -11 -1 0 0 0 0 0 0 -4.9939 4.9939 0 0. 9.
 15 1 1 2 0 0 4.46467 -0.572919 -1.24205 4.99619 1.7768 0. -1
 -15 1 1 2 0 0 -4.46467 0.572919 1.24814 4.99771 1.7768 0. 1
</event>
<event>
 4 80 1 -1 -1 -1
 11 -1 0 0 0 0 0 0 4.9973 4.9973 0 0. 9.
 -11 -1 0 0 0 0 0 0 -4.99897 4.99897 0 0. 9.
 15 1 1 2 0 0 0.960267 4.57177 0.0189147 4.99813 1.7768 0. 1
 -15 1 1 2 0 0 -0.960267 -4.57177 -0.020584 4.99813 1.7768 0. -1
</event>
<event>
 4 80 1 -1 -1 -1
 11 -1 0 0 0 0 0 0 4.99027 4.99027 0 0. 9.
 -11 -1 0 0 0 0 0 0 -4.99523 4.99523 0 0. 9.
 15 1 1 2 0 0 1.04737 3.38531 3.03274 4.99125 1.7768 0. -1
 -15 1 1 2 0 0 -1.04737 -3.38531 -3.0377 4.99426 1.7768 0. 1
</event>
<event>
 4 80 1 -1 -1 -1
 11 -1 0 0 0 0 0 0 4.99865 4.99865 0 0. 9.
 -11 -1 0 0 0 0 0 0 -4.47901 4.47901 0 0. 9.
 15 1 1 2 0 0 -0.45809 0.409674 -4.08879 4.5004 1.7768 0. 1
 -15 1 1 2 0 0 0.45809 -0.409674 4.60843 4.97726 1.7768 0. -1
</event>
<event>
 4 80 1 -1 -1 -1
 11 -1 0 0 0 0 0 0 5 5 0 0. 9.
 -11 -1 0 0 0 0 0 0 -5 5 0 0. 9.
 15 1 1 2 0 0 -0.347197 2.23337 4.09069 5 1.7768 0. -1
 -15 1 1 2 0 0 0.347197 -2.23337 -4.09069 5 1.7768 0. 1
</event>
<event>
 4 80 1 -1 -1 -1
 11 -1 0 0 0 0 0 0 5 5 0 0. 9.
 -11 -1 0 0 0 0 0 0 -5 5 0 0. 9.
 15 1 1 2 0 0 -2.17083 1.79116 3.73116 5 1.7768 0. 1
 -15 1 1 2 0 0 2.17083 -1.79116 -3.73116 5 1.7768 0. -1
</event>
<event>
 4 80 1 -1 -1 -1
 11 -1 0 0 0 0 0 0 5 5 0 0. 9.
 -11 -1 0 0 0 0 0 0 -5 5 0 0. 9.
 15 1 1 2 0 0 -0.507999 -4.25292 -1.86998 5 1.7768 0. 1
 -15 1 1 2 0 0 0.507999 4.25292 1.86998 5 1.7768 0. -1
</event>
<event>
 4 80 1 -1 -1 -1
 11 -1 0 0 0 0 0 0 5 5 0 0. 9.
 -11 -1 0 0 0 0 0 0 -5 5 0 0. 9.
 15 1 1 2 0 0 -0.447586 -4.37978 1.56828 5 1.7768 0. -1
 -15 1 1 2 0 0 0.447586 4.37978 -1.56828 5 1.7768 0. 1
</event>
<event>
 4 80 1 -1 -1 -1
 11 -1 0 0 0 0 0 0 4.99875 4.99875 0 0. 9.
 -11 -1 0 0 0 0 0 0 -4.71256 4.71256 0 0. 9.
 15 1 1 2 0 0 0.349935 -2.72165 -3.44585 4.74989 1.7768 0. -1
 -15 1 1 2 0 0 -0.349935 2.72165 3.73204 4.96142 1.7768 0. 1
</event>
<event>
 4 80 1 -1 -1 -1
 11 -1 0 0 0 0 0 0 4.99997 4.99997 0 0. 9.
 -11 -1 0 0 0 0 0 0 -5 5 0 0. 9.
 15 1 1 2 0 0 -2.61261 -0.645152 3.821 4.99997 1.7768 0. -1
 -15 1 1 2 0 0 2.61261 0.645152 -3.82103 5 1.7768 0. 1
</event>
<event>
 4 80 1 -1 -1 -1
 11 -1 0 0 0 0 0 0 5 5 0 0. 9.
 -11 -1 0 0 0 0 0 0 -5 5 0 0. 9.
 15 1 1 2 0 0 -3.83235 -0.868863 2.52991 5 1.7768 0. 1
 -15 1 1 2 0 0 3.83235 0.868863 -2.52991 5 1.7768 0. -1
</event>
<event>
 4 80 1 -1 -1 -1
 11 -1 0 0 0 0 0 0 5 5 0 0. 9.
 -11 -1 0 0 0 0 0 0 -4.99766 4.99766 0 0. 9.
 15 1 1 2 0 0 1.94592 0.0978883 -4.24552 4.99784 1.7768 0. 1
 -15 1 1 2 0 0 -1.94592 -0.0978883 4.24786 4.99982 1.7768 0. -1
</event>
<event>
 4 80 1 -1 -1 -1
 11 -1 0 0 0 0 0 0 4.71444 4.71444 0 0. 9.
 -11 -1 0 0 0 0 0 0 -5 5 0 0. 9.
 15 1 1 2 0 0 3.33334 0.852143 2.78717 4.77109 1.7768 0. -1
 -15 1 1 2 0 0 -3.33334 -0.852143 -3.07273 4.94335 1.7768 0. 1
</event>
<event>
 4 80 1 -1 -1 -1
 11 -1 0 0 0 0 0 0 4.99498 4.99498 0 0. 9.
 -11 -1 0 0 0 0 0 0 -4.99692 4.99692 0 0. 9.
 15 1 1 2 0 0 2.01785 3.99731 1.32249 4.99569 1.7768 0. 1
 -15 1 1 2 0 0 -2.01785 -3.99731 -1.32444 4.99621 1.7768 0. -1
</event>
<event>
 4 80 1 -1 -1 -1
 11 -1 0 0 0 0 0 0 5 5 0 0. 9.
 -11 -1 0 0 0 0 0 0 -5 5 0 0. 9.
 15 1 1 2 0 0 -1.45111 -3.12424 -3.15843 5 1.7768 0. -1
 -15 1 1 2 0 0 1.45111 3.12424 3.15843 5 1.7768 0. 1
</event>
<event>
 4 80 1 -1 -1 -1
 11 -1 0 0 0 0 0 0 5 5 0 0. 9.
 -11 -1 0 0 0 0 0 0 -5 5 0 0. 9.
 15 1 1 2 0 0 -2.44806 2.1278 -3.36478 5 1.7768 0. 1
 -15 1 1 2 0 0 2.44806 -2.1278 3.36478 5 1.7768 0. -1
</event>
<event>
 4 80 1 -1 -1 -1
 11 -1 0 0 0 0 0 0 5 5 0 0. 9.
 -11 -1 0 0 0 0 0 0 -4.99713 4.99713 0 0. 9.
 15 1 1 2 0 0 -2.99283 -0.402413 -3.56353 4.99754 1.7768 0. 1
 -15 1 1 2 0 0 2.99283 0.402413 3.5664 4.99959 1.7768 0. -1
</event>
<event>
 4 80 1 -1 -1 -1
 11 -1 0 0 0 0 0 0 5 5 0 0. 9.
 -11 -1 0 0 0 0 0 0 -4.53585 4.53585 0 0. 9.
 15 1 1 2 0 0 0.0961744 -0.357697 -4.17592 4.55337 1.7768 0. -1
 -15 1 1 2 0 0 -0.0961744 0.357697 4.64006 4.98248 1.7768 0. 1
</event>
<event>
 4 80 1 -1 -1 -1
 11 -1 0 0 0 0 0 0 4.99958 4.99958 0 0. 9.
 -11 -1 0 0 0 0 0 0 -4.99998 4.99998 0 0. 9.
 15 1 1 2 0 0 -3.94302 1.44921 2.04735 4.9997 1.7768 0. 1
 -15 1 1 2 0 0 3.94302 -1.44921 -2.04776 4.99986 1.7768 0. -1
</event>
<event>
 4 80 1 -1 -1 -1
 11 -1 0 0 0 0 0 0 4.16387 4.16387 0 0. 9.
 -11 -1 0 0 0 0 0 0 -4.99986 4.99986 0 0. 9.
 15 1 1 2 0 0 1.36891 -3.05288 2.13569 4.3489 1.7768 0. 1
 -15 1 1 2 0 0 -1.36891 3.05288 -2.97168 4.81483 1.7768 0. -1
</event>
<event>
 4 80 1 -1 -1 -1
 11 -1 0 0 0 0 0 0 5 5 0 0. 9.
 -11 -1 0 0 0 0 0 0 -4.99756 4.99756 0 0. 9.
 15 1 1 2 0 0 -1.49467 -1.33933 -4.21805 4.99775 1.7768 0. 1
 -15 1 1 2 0 0 1.49467 1.33933 4.22049 4.99981 1.7768 0. -1
</event>
<event>
 4 80 1 -1 -1 -1
 11 -1 0 0 0 0 0 0 5 5 0 0. 9.
 -11 -1 0 0 0 0 0 0 -5 5 0 0. 9.
 15 1 1 2 0 0 1.56281 1.23799 4.22697 5 1.7768 0. -1
 -15 1 1 2 0 0 -1.56281 -1.23799 -4.22697 5 1.7768 0. 1
</event>
<event>
 4 80 1 -1 -1 -1
 11 -1 0 0 0 0 0 0 5 5 0 0. 9.
 -11 -1 0 0 0 0 0 0 -5 5 0 0. 9.
 15 1 1 2 0 0 -0.393422 2.7038 -3.7917 5 1.7768 0. -1
 -15 1 1 2 0 0 0.393422 -2.7038 3.7917 5 1.7768 0. 1
</event>
<event>
 4 80 1 -1 -1 -1
 11 -1 0 0 0 0 0 0 4.97987 4.97987 0 0. 9.
 -11 -1 0 0 0 0 0 0 -1.03442 1.03442 0 0. 9.
 15 1 1 2 0 0 -0.429759 -0.843668 3.3605 3.91754 1.7768 0. 1
 -15 1 1 2 0 0 0.429759 0.843668 0.584947 2.09675 1.7768 0. -1
</event>
<event>
 4 80 1 -1 -1 -1
 11 -1 0 0 0 0 0 0 4.99993 4.99993 0 0. 9.
 -11 -1 0 0 0 0 0 0 -0.877266 0.877266 0 0. 9.
 15 1 1 2 0 0 -0.112902 1.02768 1.50068 2.54532 1.7768 0. -1
 -15 1 1 2 0 0 0.112902 -1.02768 2.62198 3.33187 1.7768 0. 1
</event>
<event>
 4 80 1 -1 -1 -1
 11 -1 0 0 0 0 0 0 5 5 0 0. 9.
 -11 -1 0 0 0 0 0 0 -5 5 0 0. 9.
 15 1 1 2 0 0 -2.12563 -2.64695 -3.21211 5 1.7768 0. -1
 -15 1 1 2 0 0 2.12563 2.64695 3.21211 5 1.7768 0. 1
</event>
<event>
 4 80 1 -1 -1 -1
 11 -1 0 0 0 0 0 0 5 5 0 0. 9.
 -11 -1 0 0 0 0 0 0 -5 5 0 0. 9.
 15 1 1 2 0 0 1.78082 -3.36099 -2.71564 5 1.7768 0. -1
 -15 1 1 2 0 0 -1.78082 3.36099 2.71564 5 1.7768 0. 1
</event>
<event>
 4 80 1 -1 -1 -1
 11 -1 0 0 0 0 0 0 4.97484 4.97484 0 0. 9.
 -11 -1 0 0 0 0 0 0 -0.728461 0.728461 0 0. 9.
 15 1 1 2 0 0 0.336393 -0.00231195 3.01329 3.51437 1.7768 0. 1
 -15 1 1 2 0 0 -0.336393 0.00231195 1.23308 2.18892 1.7768 0. -1
</event>
<event>
 4 80 1 -1 -1 -1
 11 -1 0 0 0 0 0 0 5 5 0 0. 9.
 -11 -1 0 0 0 0 0 0 -4.9999 4.9999 0 0. 9.
 15 1 1 2 0 0 4.35986 0.399079 1.63532 4.99997 1.7768 0. -1
 -15 1 1 2 0 0 -4.35986 -0.399079 -1.63522 4.99993 1.7768 0. 1
</event>
<event>
 4 80 1 -1 -1 -1
 11 -1 0 0 0 0 0 0 4.99999 4.99999 0 0. 9.
 -11 -1 0 0 0 0 0 0 -5 5 0 0. 9.
 15 1 1 2 0 0 -1.22346 -0.0165915 4.51055 4.99999 1.7768 0. -1
 -15 1 1 2 0 0 1.22346 0.0165915 -4.51056 5 1.7768 0. 1
</event>
<event>
 4 80 1 -1 -1 -1
 11 -1 0 0 0 0 0 0 4.83418 4.83418 0 0. 9.
 -11 -1 0 0 0 0 0 0 -5 5 0 0. 9.
 15 1 1 2 0 0 0.904762 -1.21457 -4.41012 4.99005 1.7768 0. -1
 -15 1 1 2 0 0 -0.904762 1.21457 4.2443 4.84412 1.7768 0. 1
</event>
<event>
 4 80 1 -1 -1 -1
 11 -1 0 0 0 0 0 0 5 5 0 0. 9.
 -11 -1 0 0 0 0 0 0 -5 5 0 0. 9.
 15 1 1 2 0 0 3.09617 -3.2416 1.32214 5 1.7768 0. -1
 -15 1 1 2 0 0 -3.09617 3.2416 -1.32214 5 1.7768 0. 1
</event>
<event>
 4 80 1 -1 -1 -1
 11 -1 0 0 0 0 0 0 4.91868 4.91868 0 0. 9.
 -11 -1 0 0 0 0 0 0 -4.99994 4.99994 0 0. 9.
 15 1 1 2 0 0 -4.23842 0.444104 1.76884 4.94449 1.7768 0. -1
 -15 1 1 2 0 0 4.23842 -0.444104 -1.8501 4.97414 1.7768 0. 1
</event>
<event>
 4 80 1 -1 -1 -1
 11 -1 0 0 0 0 0 0 3.0969 3.0969 0 0. 9.
 -11 -1 0 0 0 0 0 0 -4.95965 4.95965 0 0. 9.
 15 1 1 2 0 0 -2.38722 -1.59582 -2.97583 4.50097 1.7768 0. -1
 -15 1 1 2 0 0 2.38722 1.59582 1.11309 3.55558 1.7768 0. 1
</event>
<event>
 4 80 1 -1 -1 -1
 11 -1 0 0 0 0 0 0 5 5 0 0. 9.
 -11 -1 0 0 0 0 0 0 -4.99594 4.99594 0 0. 9.
 15 1 1 2 0 0 -3.86465 2.21704 1.40603 4.99854 1.7768 0. -1
 -15 1 1 2 0 0 3.86465 -2.21704 -1.40197 4.9974 1.7768 0. 1
</event>
<event>
 4 80 1 -1 -1 -1
 11 -1 0 0 0 0 0 0 4.94608 4.94608 0 0. 9.
 -11 -1 0 0 0 0 0 0 -5 5 0 0. 9.
 15 1 1 2 0 0 3.15133 -0.134365 3.38246 4.95456 1.7768 0. 1
 -15 1 1 2 0 0 -3.15133 0.134365 -3.43637 4.99152 1.7768 0. -1
</event>
<event>
 4 80 1 -1 -1 -1
 11 -1 0 0 0 0 0 0 4.88768 4.88768 0 0. 9.
 -11 -1 0 0 0 0 0 0 -5 5 0 0. 9.
 15 1 1 2 0 0 1.75631 3.11612 -2.9694 4.97693 1.7768 0. -1
 -15 1 1 2 0 0 -1.75631 -3.11612 2.85708 4.91075 1.7768 0. 1
</event>
<event>
 4 80 1 -1 -1 -1
 11 -1 0 0 0 0 0 0 5 5 0 0. 9.
 -11 -1 0 0 0 0 0 0 -5 5 0 0. 9.
 15 1 1 2 0 0 -0.924891 2.22415 4.005 5 1.7768 0. -1
 -15 1 1 2 0 0 0.924891 -2.22415 -4.005 5 1.7768 0. 1
</event>
<event>
 4 80 1 -1 -1 -1
 11 -1 0 0 0 0 0 0 5 5 0 0. 9.
 -11 -1 0 0 0 0 0 0 -5 5 0 0. 9.
 15 1 1 2 0 0 2.29475 -2.73528 3.01573 5 1.7768 0. -1
 -15 1 1 2 0 0 -2.29475 2.73528 -3.01573 5 1.7768 0. 1
</event>
<event>
 4 80 1 -1 -1 -1
 11 -1 0 0 0 0 0 0 5 5 0 0. 9.
 -11 -1 0 0 0 0 0 0 -5 5 0 0. 9.
 15 1 1 2 0 0 -4.08843 1.18516 1.92936 5 1.7768 0. -1
 -15 1 1 2 0 0 4.08843 -1.18516 -1.92936 5 1.7768 0. 1
</event>
<event>
 4 80 1 -1 -1 -1
 11 -1 0 0 0 0 0 0 5 5 0 0. 9.
 -11 -1 0 0 0 0 0 0 -5 5 0 0. 9.
 15 1 1 2 0 0 -1.67342 -3.35242 2.79343 5 1.7768 0. 1
 -15 1 1 2 0 0 1.67342 3.35242 -2.79343 5 1.7768 0. -1
</event>
<event>
 4 80 1 -1 -1 -1
 11 -1 0 0 0 0 0 0 4.57061 4.57061 0 0. 9.
 -11 -1 0 0 0 0 0 0 -4.96087 4.96087 0 0. 9.
 15 1 1 2 0 0 -2.29617 1.88637 3.07651 4.63179 1.7768 0. -1
 -15 1 1 2 0 0 2.29617 -1.88637 -3.46676 4.89969 1.7768 0. 1
</event>
<event>
 4 80 1 -1 -1 -1
 11 -1 0 0 0 0 0 0 5 5 0 0. 9.
 -11 -1 0 0 0 0 0 0 -4.99995 4.99995 0 0. 9.
 15 1 1 2 0 0 4.03525 1.80308 -1.51907 4.99997 1.7768 0. 1
 -15 1 1 2 0 0 -4.03525 -1.80308 1.51912 4.99998 1.7768 0. -1
</event>
<event>
 4 80 1 -1 -1 -1
 11 -1 0 0 0 0 0 0 4.66835 4.66835 0 0. 9.
 -11 -1 0 0 0 0 0 0 -5 5 0 0. 9.
 15 1 1 2 0 0 3.23898 2.20586 -2.3642 4.90958 1.7768 0. -1
 -15 1 1 2 0 0 -3.23898 -2.20586 2.03255 4.75876 1.7768 0. 1
</event>
<event>
 4 80 1 -1 -1 -1
 11 -1 0 0 0 0 0 0 5 5 0 0. 9.
 -11 -1 0 0 0 0 0 0 -5 5 0 0. 9.
 15 1 1 2 0 0 -4.10399 -2.17804 -0.505581 5 1.7768 0. -1
 -15 1 1 2 0 0 4.10399 2.17804 0.505581 5 1.7768 0. 1
</event>
<event>
 4 80 1 -1 -1 -1
 11 -1 0 0 0 0 0 0 4.99184 4.99184 0 0. 9.
 -11 -1 0 0 0 0 0 0 -5 5 0 0. 9.
 15 1 1 2 0 0 4.2528 1.92711 -0.0417746 4.99595 1.7768 0. -1
 -15 1 1 2 0 0 -4.2528 -1.92711 0.0336216 4.99589 1.7768 0. 1
</event>
<event>
 4 80 1 -1 -1 -1
 11 -1 0 0 0 0 0 0 5 5 0 0. 9.
 -11 -1 0 0 0 0 0 0 -5 5 0 0. 9.
 15 1 1 2 0 0 0.330172 -3.66613 2.87972 5 1.7768 0. -1
 -15 1 1 2 0 0 -0.330172 3.66613 -2.87972 5 1.7768 0. 1
</event>
<event>
 4 80 1 -1 -1 -1
 11 -1 0 0 0 0 0 0 4.42752 4.42752 0 0. 9.
 -11 -1 0 0 0 0 0 0 -4.99996 4.99996 0 0. 9.
 15 1 1 2 0 0 -2.48926 2.5518 -2.79516 4.86608 1.7768 0. 1
 -15 1 1 2 0 0 2.48926 -2.5518 2.22272 4.56139 1.7768 0. -1
</event>
<event>
 4 80 1 -1 -1 -1
 11 -1 0 0 0 0 0 0 4.99999 4.99999 0 0. 9.
 -11 -1 0 0 0 0 0 0 -4.99957 4.99957 0 0. 9.
 15 1 1 2 0 0 -4.63943 -0.0675683 0.55808 4.9998 1.7768 0. 1
 -15 1 1 2 0 0 4.63943 0.0675683 -0.557653 4.99976 1.7768 0. -1
</event>
<event>
 4 80 1 -1 -1 -1
 11 -1 0 0 0 0 0 0 4.74989 4.74989 0 0. 9.
 -11 -1 0 0 0 0 0 0 -5 5 0 0. 9.
 15 1 1 2 0 0 2.88753 -1.05474 3.21392 4.78929 1.7768 0. -1
 -15 1 1 2 0 0 -2.88753 1.05474 -3.46403 4.9606 1.7768 0. 1
</event>
<event>
 4 80 1 -1 -1 -1
 11 -1 0 0 0 0 0 0 5 5 0 0. 9.
 -11 -1 0 0 0 0 0 0 -4.99865 4.99865 0 0. 9.
 15 1 1 2 0 0 -2.89547 -3.66597 0.112296 4.99934 1.7768 0. 1
 -15 1 1 2 0 0 2.89547 3.66597 -0.110946 4.99931 1.7768 0. -1
</event>
<event>
 4 80 1 -1 -1 -1
 11 -1 0 0 0 0 0 0 4.96984 4.96984 0 0. 9.
 -11 -1 0 0 0 0 0 0 -4.98362 4.98362 0 0. 9.
 15 1 1 2 0 0 -2.92394 -3.55912 0.620251 4.97587 1.7768 0. 1
 -15 1 1 2 0 0 2.92394 3.55912 -0.634032 4.9776 1.7768 0. -1
</event>
<event>
 4 80 1 -1 -1 -1
 11 -1 0 0 0 0 0 0 4.99968 4.99968 0 0. 9.
 -11 -1 0 0 0 0 0 0 -5 5 0 0. 9.
 15 1 1 2 0 0 1.4029 -0.52608 4.42656 4.9997 1.7768 0. 1
 -15 1 1 2 0 0 -1.4029 0.52608 -4.42687 4.99998 1.7768 0. -1
</event>
<event>
 4 80 1 -1 -1 -1
 11 -1 0 0 0 0 0 0 5 5 0 0. 9.
 -11 -1 0 0 0 0 0 0 -4.99983 4.99983 0 0. 9.
 15 1 1 2 0 0 -2.05526 -3.36631 -2.50696 4.99987 1.7768 0. 1
 -15 1 1 2 0 0 2.05526 3.36631 2.50713 4.99996 1.7768 0. -1
</event>
<event>
 4 80 1 -1 -1 -1
 11 -1 0 0 0 0 0 0 5 5 0 0. 9.
 -11 -1 0 0 0 0 0 0 -4.61418 4.61418 0 0. 9.
 15 1 1 2 0 0 -3.0871 -1.34092 3.12527 4.92477 1.7768 0. -1
 -15 1 1 2 0 0 3.0871 1.34092 -2.73946 4.68942 1.7768 0. 1
</event>
<event>
 4 80 1 -1 -1 -1
 11 -1 0 0 0 0 0 0 0.726868 0.726868 0 0. 9.
 -11 -1 0 0 0 0 0 0 -4.99993 4.99993 0 0. 9.
 15 1 1 2 0 0 -0.149471 -0.651844 -1.87935 2.6715 1.7768 0. 1
 -15 1 1 2 0 0 0.149471 0.651844 -2.39371 3.0553 1.7768 0. -1
</event>
<event>
 4 80 1 -1 -1 -1
 11 -1 0 0 0 0 0 0 5 5 0 0. 9.
 -11 -1 0 0 0 0 0 0 -5 5 0 0. 9.
 15 1 1 2 0 0 1.04218 -4.27501 -1.57494 5 1.7768 0. -1
 -15 1 1 2 0 0 -1.04218 4.27501 1.57494 5 1.7768 0. 1
</event>
<event>
 4 80 1 -1 -1 -1
 11 -1 0 0 0 0 0 0 3.76633 3.76633 0 0. 9.
 -11 -1 0 0 0 0 0 0 -5 5 0 0. 9.
 15 1 1 2 0 0 -2.61818 1.23583 2.11063 3.99933 1.7768 0. 1
 -15 1 1 2 0 0 2.61818 -1.23583 -3.3443 4.767 1.7768 0. -1
</event>
<event>
 4 80 1 -1 -1 -1
 11 -1 0 0 0 0 0 0 4.9927 4.9927 0 0. 9.
 -11 -1 0 0 0 0 0 0 -5 5 0 0. 9.
 15 1 1 2 0 0 -2.97776 2.07679 -2.9406 4.9985 1.7768 0. 1
 -15 1 1 2 0 0 2.97776 -2.07679 2.9333 4.99421 1.7768 0. -1
</event>
<event>
 4 80 1 -1 -1 -1
 11 -1 0 0 0 0 0 0 4.80367 4.80367 0 0. 9.
 -11 -1 0 0 0 0 0 0 -5 5 0 0. 9.
 15 1 1 2 0 0 4.53834 -0.147921 0.394097 4.89198 1.7768 0. 1
 -15 1 1 2 0 0 -4.53834 0.147921 -0.59043 4.91169 1.7768 0. -1
</event>
<event>
 4 80 1 -1 -1 -1
 11 -1 0 0 0 0 0 0 5 5 0 0. 9.
 -11 -1 0 0 0 0 0 0 -4.15956 4.15956 0 0. 9.
 15 1 1 2 0 0 0.527402 -3.84242 2.03878 4.72829 1.7768 0. -1
 -15 1 1 2 0 0 -0.527402 3.84242 -1.19834 4.43127 1.7768 0. 1
</event>
<event>
 4 80 1 -1 -1 -1
 11 -1 0 0 0 0 0 0 5 5 0 0. 9.
 -11 -1 0 0 0 0 0 0 -4.99719 4.99719 0 0. 9.
 15 1 1 2 0 0 -0.747572 -1.68084 4.29607 4.9998 1.7768 0. 1
 -15 1 1 2 0 0 0.747572 1.68084 -4.29326 4.99739 1.7768 0. -1
</event>
<event>
 4 80 1 -1 -1 -1
 11 -1 0 0 0 0 0 0 4.98431 4.98431 0 0. 9.
 -11 -1 0 0 0 0 0 0 -5 5 0 0. 9.
 15 1 1 2 0 0 4.21719 -0.0161787 1.98688 4.98902 1.7768 0. -1
 -15 1 1 2 0 0 -4.21719 0.0161787 -2.00257 4.99529 1.7768 0. 1
</event>
<event>
 4 80 1 -1 -1 -1
 11 -1 0 0 0 0 0 0 4.99105 4.99105 0 0. 9.
 -11 -1 0 0 0 0 0 0 -5 5 0 0. 9.
 15 1 1 2 0 0 -2.77714 -0.978252 -3.62774 4.99877 1.7768 0. -1
 -15 1 1 2 0 0 2.77714 0.978252 3.61879 4.99228 1.7768 0. 1
</event>
<event>
 4 80 1 -1 -1 -1
 11 -1 0 0 0 0 0 0 5 5 0 0. 9.
 -11 -1 0 0 0 0 0 0 -4.99082 4.99082 0 0. 9.
 15 1 1 2 0 0 3.33786 3.26169 -0.123531 4.99529 1.7768 0. 1
 -15 1 1 2 0 0 -3.33786 -3.26169 0.132713 4.99553 1.7768 0. -1
</event>
<event>
 4 80 1 -1 -1 -1
 11 -1 0 0 0 0 0 0 4.99972 4.99972 0 0. 9.
 -11 -1 0 0 0 0 0 0 -5 5 0 0. 9.
 15 1 1 2 0 0 0.309723 -3.31687 -3.27784 4.99995 1.7768 0. -1
 -15 1 1 2 0 0 -0.309723 3.31687 3.27756 4.99977 1.7768 0. 1
</event>
<event>
 4 80 1 -1 -1 -1
 11 -1 0 0 0 0 0 0 5 5 0 0. 9.
 -11 -1 0 0 0 0 0 0 -4.99339 4.99339 0 0. 9.
 15 1 1 2 0 0 4.27228 -1.33666 1.3338 4.99758 1.7768 0. -1
 -15 1 1 2 0 0 -4.27228 1.33666 -1.3272 4.99582 1.7768 0. 1
</event>
<event>
 4 80 1 -1 -1 -1
 11 -1 0 0 0 0 0 0 5 5 0 0. 9.
 -11 -1 0 0 0 0 0 0 -5 5 0 0. 9.
 15 1 1 2 0 0 -0.513889 2.70739 3.77469 5 1.7768 0. 1
 -15 1 1 2 0 0 0.513889 -2.70739 -3.77469 5 1.7768 0. -1
</event>
<event>
 4 80 1 -1 -1 -1
 11 -1 0 0 0 0 0 0 5 5 0 0. 9.
 -11 -1 0 0 0 0 0 0 -4.99999 4.99999 0 0. 9.
 15 1 1 2 0 0 2.67015 -0.0817334 3.83482 5 1.7768 0. 1
 -15 1 1 2 0 0 -2.67015 0.0817334 -3.83482 4.99999 1.7768 0. -1
</event>
<event>
 4 80 1 -1 -1 -1
 11 -1 0 0 0 0 0 0 5 5 0 0. 9.
 -11 -1 0 0 0 0 0 0 -4.99997 4.99997 0 0. 9.
 15 1 1 2 0 0 -4.57516 0.951942 -0.0618798 4.99998 1.7768 0. -1
 -15 1 1 2 0 0 4.57516 -0.951942 0.0619113 4.99998 1.7768 0. 1
</event>
<event>
 4 80 1 -1 -1 -1
 11 -1 0 0 0 0 0 0 5 5 0 0. 9.
 -11 -1 0 0 0 0 0 0 -5 5 0 0. 9.
 15 1 1 2 0 0 2.65721 -0.567493 3.80256 5 1.7768 0. 1
 -15 1 1 2 0 0 -2.65721 0.567493 -3.80256 5 1.7768 0. -1
</event>
<event>
 4 80 1 -1 -1 -1
 11 -1 0 0 0 0 0 0 5 5 0 0. 9.
 -11 -1 0 0 0 0 0 0 -5 5 0 0. 9.
 15 1 1 2 0 0 -2.26071 4.08718 0.162612 5 1.7768 0. 1
 -15 1 1 2 0 0 2.26071 -4.08718 -0.162612 5 1.7768 0. -1
</event>
<event>
 4 80 1 -1 -1 -1
 11 -1 0 0 0 0 0 0 5 5 0 0. 9.
 -11 -1 0 0 0 0 0 0 -4.9912 4.9912 0 0. 9.
 15 1 1 2 0 0 2.96533 -0.531942 -3.56241 4.99246 1.7768 0. 1
 -15 1 1 2 0 0 -2.96533 0.531942 3.57121 4.99874 1.7768 0. -1
</event>
<event>
 4 80 1 -1 -1 -1
 11 -1 0 0 0 0 0 0 5 5 0 0. 9.
 -11 -1 0 0 0 0 0 0 -4.98622 4.98622 0 0. 9.
 15 1 1 2 0 0 -1.8088 2.36913 -3.58321 4.98816 1.7768 0. 1
 -15 1 1 2 0 0 1.8088 -2.36913 3.597 4.99806 1.7768 0. -1
</event>
<event>
 4 80 1 -1 -1 -1
 11 -1 0 0 0 0 0 0 5 5 0 0. 9.
 -11 -1 0 0 0 0 0 0 -4.76573 4.76573 0 0. 9.
 15 1 1 2 0 0 -3.84551 2.42267 0.234064 4.88567 1.7768 0. -1
 -15 1 1 2 0 0 3.84551 -2.42267 0.000201358 4.88006 1.7768 0. 1
</event>
<event>
 4 80 1 -1 -1 -1
 11 -1 0 0 0 0 0 0 5 5 0 0. 9.
 -11 -1 0 0 0 0 0 0 -5 5 0 0. 9.
 15 1 1 2 0 0 -3.86259 0.928995 -2.46163 5 1.7768 0. 1
 -15 1 1 2 0 0 3.86259 -0.928995 2.46163 5 1.7768 0. -1
</event>
<event>
 4 80 1 -1 -1 -1
 11 -1 0 0 0 0 0 0 5 5 0 0. 9.
 -11 -1 0 0 0 0 0 0 -5 5 0 0. 9.
 15 1 1 2 0 0 -2.79655 -2.57194 -2.72152 5 1.7768 0. 1
 -15 1 1 2 0 0 2.79655 2.57194 2.72152 5 1.7768 0. -1
</event>
<event>
 4 80 1 -1 -1 -1
 11 -1 0 0 0 0 0 0 5 5 0 0. 9.
 -11 -1 0 0 0 0 0 0 -4.96587 4.96587 0 0. 9.
 15 1 1 2 0 0 0.653992 3.19511 3.33901 4.99431 1.7768 0. -1
 -15 1 1 2 0 0 -0.653992 -3.19511 -3.30488 4.97156 1.7768 0. 1
</event>
<event>
 4 80 1 -1 -1 -1
 11 -1 0 0 0 0 0 0 5 5 0 0. 9.
 -11 -1 0 0 0 0 0 0 -5 5 0 0. 9.
 15 1 1 2 0 0 4.39324 0.686002 1.43913 5 1.7768 0. -1
 -15 1 1 2 0 0 -4.39324 -0.686002 -1.43913 5 1.7768 0. 1
</event>
<event>
 4 80 1 -1 -1 -1
 11 -1 0 0 0 0 0 0 5 5 0 0. 9.
 -11 -1 0 0 0 0 0 0 -5 5 0 0. 9.
 15 1 1 2 0 0 4.26596 1.74715 -0.768958 5 1.7768 0. 1
 -15 1 1 2 0 0 -4.26596 -1.74715 0.768956 5 1.7768 0. -1
</event>
<event>
 4 80 1 -1 -1 -1
 11 -1 0 0 0 0 0 0 4.99998 4.99998 0 0. 9.
 -11 -1 0 0 0 0 0 0 -5 5 0 0. 9.
 15 1 1 2 0 0 -2.8537 3.52053 1.14211 4.99998 1.7768 0. -1
 -15 1 1 2 0 0 2.8537 -3.52053 -1.14213 4.99999 1.7768 0. 1
</event>
<event>
 4 80 1 -1 -1 -1
 11 -1 0 0 0 0 0 0 0.675971 0.675971 0 0. 9.
 -11 -1 0 0 0 0 0 0 -5 5 0 0. 9.
 15 1 1 2 0 0 0.113658 0.423044 -1.89356 2.63347 1.7768 0. -1
 -15 1 1 2 0 0 -0.113658 -0.423044 -2.43047 3.0425 1.7768 0. 1
</event>
<event>
 4 80 1 -1 -1 -1
 11 -1 0 0 0 0 0 0 4.99999 4.99999 0 0. 9.
 -11 -1 0 0 0 0 0 0 -4.69755 4.69755 0 0. 9.
 15 1 1 2 0 0 3.89826 0.120093 2.41488 4.91937 1.7768 0. 1
 -15 1 1 2 0 0 -3.89826 -0.120093 -2.11244 4.77818 1.7768 0. -1
</event>
<event>
 4 80 1 -1 -1 -1
 11 -1 0 0 0 0 0 0 4.40873 4.40873 0 0. 9.
 -11 -1 0 0 0 0 0 0 -5 5 0 0. 9.
 15 1 1 2 0 0 -1.33915 -4.13423 -0.322392 4.70605 1.7768 0. 1
 -15 1 1 2 0 0 1.33915 4.13423 -0.268878 4.70268 1.7768 0. -1
</event>
<event>
 4 80 1 -1 -1 -1
 11 -1 0 0 0 0 0 0 5 5 0 0. 9.
 -11 -1 0 0 0 0 0 0 -4.99389 4.99389 0 0. 9.
 15 1 1 2 0 0 -4.46672 1.3367 -0.267745 4.99678 1.7768 0. -1
 -15 1 1 2 0 0 4.46672 -1.3367 0.273855 4.99711 1.7768 0. 1
</event>
<event>
 4 80 1 -1 -1 -1
 11 -1 0 0 0 0 0 0 4.99996 4.99996 0 0. 9.
 -11 -1 0 0 0 0 0 0 -4.99943 4.99943 0 0. 9.
 15 1 1 2 0 0 4.11432 -1.06465 1.944 4.9998 1.7768 0. 1
 -15 1 1 2 0 0 -4.11432 1.06465 -1.94347 4.99959 1.7768 0. -1
</event>
<event>
 4 80 1 -1 -1 -1
 11 -1 0 0 0 0 0 0 5 5 0 0. 9.
 -11 -1 0 0 0 0 0 0 -4.99202 4.99202 0 0. 9.
 15 1 1 2 0 0 -3.81097 2.68235 -0.285563 4.99578 1.7768 0. 1
 -15 1 1 2 0 0 3.81097 -2.68235 0.293534 4.99624 1.7768 0. -1
</event>
<event>
 4 80 1 -1 -1 -1
 11 -1 0 0 0 0 0 0 5 5 0 0. 9.
 -11 -1 0 0 0 0 0 0 -5 5 0 0. 9.
 15 1 1 2 0 0 1.65348 3.25062 -2.92263 5 1.7768 0. 1
 -15 1 1 2 0 0 -1.65348 -3.25062 2.92263 5 1.7768 0. -1
</event>
<event>
 4 80 1 -1 -1 -1
 11 -1 0 0 0 0 0 0 5 5 0 0. 9.
 -11 -1 0 0 0 0 0 0 -4.99999 4.99999 0 0. 9.
 15 1 1 2 0 0 -4.46367 0.939206 -1.01773 4.99999 1.7768 0. 1
 -15 1 1 2 0 0 4.46367 -0.939206 1.01774 5 1.7768 0. -1
</event>
<event>
 4 80 1 -1 -1 -1
 11 -1 0 0 0 0 0 0 4.84302 4.84302 0 0. 9.
 -11 -1 0 0 0 0 0 0 -5 5 0 0. 9.
 15 1 1 2 0 0 -0.396074 -0.516802 -4.62147 4.99396 1.7768 0. -1
 -15 1 1 2 0 0 0.396074 0.516802 4.46449 4.84906 1.7768 0. 1
</event>
<event>
 4 80 1 -1 -1 -1
 11 -1 0 0 0 0 0 0 5 5 0 0. 9.
 -11 -1 0 0 0 0 0 0 -5 5 0 0. 9.
 15 1 1 2 0 0 1.95005 -3.58296 -2.28078 5 1.7768 0. -1
 -15 1 1 2 0 0 -1.95005 3.58296 2.28078 5 1.7768 0. 1
</event>
<event>
 4 80 1 -1 -1 -1
 11 -1 0 0 0 0 0 0 5 5 0 0. 9.
 -11 -1 0 0 0 0 0 0 -5 5 0 0. 9.
 15 1 1 2 0 0 -3.70289 0.533203 -2.80117 5 1.7768 0. 1
 -15 1 1 2 0 0 3.70289 -0.533203 2.80116 5 1.7768 0. -1
</event>
<event>
 4 80 1 -1 -1 -1
 11 -1 0 0 0 0 0 0 5 5 0 0. 9.
 -11 -1 0 0 0 0 0 0 -5 5 0 0. 9.
 15 1 1 2 0 0 -2.22998 1.02952 3.97612 5 1.7768 0. 1
 -15 1 1 2 0 0 2.22998 -1.02952 -3.97612 5 1.7768 0. -1
</event>
<event>
 4 80 1 -1 -1 -1
 11 -1 0 0 0 0 0 0 1.44099 1.44099 0 0. 9.
 -11 -1 0 0 0 0 0 0 -4.99999 4.99999 0 0. 9.
 15 1 1 2 0 0 1.72313 -1.02662 -1.96571 3.32339 1.7768 0. -1
 -15 1 1 2 0 0 -1.72313 1.02662 -1.59329 3.1176 1.7768 0. 1
</event>
<event>
 4 80 1 -1 -1 -1
 11 -1 0 0 0 0 0 0 4.99213 4.99213 0 0. 9.
 -11 -1 0 0 0 0 0 0 -5 5 0 0. 9.
 15 1 1 2 0 0 1.35524 -1.56061 4.18304 4.99277 1.7768 0. -1
 -15 1 1 2 0 0 -1.35524 1.56061 -4.19091 4.99936 1.7768 0. 1
</event>
<event>
 4 80 1 -1 -1 -1
 11 -1 0 0 0 0 0 0 4.70797 4.70797 0 0. 9.
 -11 -1 0 0 0 0 0 0 -2.9773 2.9773 0 0. 9.
 15 1 1 2 0 0 1.45997 -2.95359 0.79973 3.82786 1.7768 0. 1
 -15 1 1 2 0 0 -1.45997 2.95359 0.930939 3.85741 1.7768 0. -1
</event>
<event>
 4 80 1 -1 -1 -1
 11 -1 0 0 0 0 0 0 5 5 0 0. 9.
 -11 -1 0 0 0 0 0 0 -4.84307 4.84307 0 0. 9.
 15 1 1 2 0 0 2.64099 -1.91139 3.30833 4.97303 1.7768 0. 1
 -15 1 1 2 0 0 -2.64099 1.91139 -3.15141 4.87004 1.7768 0. -1
</event>
<event>
 4 80 1 -1 -1 -1
 11 -1 0 0 0 0 0 0 4.9991 4.9991 0 0. 9.
 -11 -1 0 0 0 0 0 0 -4.9998 4.9998 0 0. 9.
 15 1 1 2 0 0 -2.57444 2.61688 2.89119 4.99925 1.7768 0. -1
 -15 1 1 2 0 0 2.57444 -2.61688 -2.89189 4.99966 1.7768 0. 1
</event>
<event>
 4 80 1 -1 -1 -1
 11 -1 0 0 0 0 0 0 5 5 0 0. 9.
 -11 -1 0 0 0 0 0 0 -4.98373 4.98373 0 0. 9.
 15 1 1 2 0 0 3.20705 -2.74395 -1.97843 4.98863 1.7768 0. 1
 -15 1 1 2 0 0 -3.20705 2.74395 1.99471 4.9951 1.7768 0. -1
</event>
<event>
 4 80 1 -1 -1 -1
 11 -1 0 0 0 0 0 0 4.99998 4.99998 0 0. 9.
 -11 -1 0 0 0 0 0 0 -5 5 0 0. 9.
 15 1 1 2 0 0 -2.21619 -2.5647 3.2176 4.99998 1.7768 0. 1
 -15 1 1 2 0 0 2.21619 2.5647 -3.21762 5 1.7768 0. -1
</event>
<event>
 4 80 1 -1 -1 -1
 11 -1 0 0 0 0 0 0 5 5 0 0. 9.
 -11 -1 0 0 0 0 0 0 -5 5 0 0. 9.
 15 1 1 2 0 0 4.16569 -1.81793 -1.0883 5 1.7768 0. -1
 -15 1 1 2 0 0 -4.16569 1.81793 1.0883 5 1.7768 0. 1
</event>
<event>
 4 80 1 -1 -1 -1
 11 -1 0 0 0 0 0 0 5 5 0 0. 9.
 -11 -1 0 0 0 0 0 0 -5 5 0 0. 9.
 15 1 1 2 0 0 -0.252377 3.10782 -3.48138 5 1.7768 0. 1
 -15 1 1 2 0 0 0.252377 -3.10782 3.48138 5 1.7768 0. -1
</event>
<event>
 4 80 1 -1 -1 -1
 11 -1 0 0 0 0 0 0 4.00021 4.00021 0 0. 9.
 -11 -1 0 0 0 0 0 0 -5 5 0 0. 9.
 15 1 1 2 0 0 0.150511 -1.3672 -4.39069 4.93231 1.7768 0. -1
 -15 1 1 2 0 0 -0.150511 1.3672 3.3909 4.0679 1.7768 0. 1
</event>
<event>
 4 80 1 -1 -1 -1
 11 -1 0 0 0 0 0 0 2.8496 2.8496 0 0. 9.
 -11 -1 0 0 0 0 0 0 -4.99996 4.99996 0 0. 9.
 15 1 1 2 0 0 1.59195 -1.05713 -3.911 4.70164 1.7768 0. 1
 -15 1 1 2 0 0 -1.59195 1.05713 1.76063 3.14791 1.7768 0. -1
</event>
<event>
 4 80 1 -1 -1 -1
 11 -1 0 0 0 0 0 0 5 5 0 0. 9.
 -11 -1 0 0 0 0 0 0 -4.99793 4.99793 0 0. 9.
 15 1 1 2 0 0 -4.23403 -1.88159 0.60477 4.99909 1.7768 0. -1
 -15 1 1 2 0 0 4.23403 1.88159 -0.602697 4.99884 1.7768 0. 1
</event>
<event>
 4 80 1 -1 -1 -1
 11 -1 0 0 0 0 0 0 5 5 0 0. 9.
 -11 -1 0 0 0 0 0 0 -5 5 0 0. 9.
 15 1 1 2 0 0 0.963723 -0.0210751 4.57308 5 1.7768 0. 1
 -15 1 1 2 0 0 -0.963723 0.0210751 -4.57308 5 1.7768 0. -1
</event>
<event>
 4 80 1 -1 -1 -1
 11 -1 0 0 0 0 0 0 4.97792 4.97792 0 0. 9.
 -11 -1 0 0 0 0 0 0 -5 5 0 0. 9.
 15 1 1 2 0 0 -3.11382 2.39991 2.49424 4.98342 1.7768 0. 1
 -15 1 1 2 0 0 3.11382 -2.39991 -2.51633 4.9945 1.7768 0. -1
</event>
<event>
 4 80 1 -1 -1 -1
 11 -1 0 0 0 0 0 0 4.99998 4.99998 0 0. 9.
 -11 -1 0 0 0 0 0 0 -2.99271 2.99271 0 0. 9.
 15 1 1 2 0 0 -0.949449 -1.02039 4.24818 4.81118 1.7768 0. -1
 -15 1 1 2 0 0 0.949449 1.02039 -2.24091 3.18152 1.7768 0. 1
</event>
<event>
 4 80 1 -1 -1 -1
 11 -1 0 0 0 0 0 0 4.99914 4.99914 0 0. 9.
 -11 -1 0 0 0 0 0 0 -4.99999 4.99999 0 0. 9.
 15 1 1 2 0 0 2.44697 3.4698 1.95168 4.9994 1.7768 0. -1
 -15 1 1 2 0 0 -2.44697 -3.4698 -1.95254 4.99973 1.7768 0. 1
</event>
<event>
 4 80 1 -1 -1 -1
 11 -1 0 0 0 0 0 0 5 5 0 0. 9.
 -11 -1 0 0 0 0 0 0 -4.83789 4.83789 0 0. 9.
 15 1 1 2 0 0 1.01491 -3.19194 3.21408 4.97057 1.7768 0. -1
 -15 1 1 2 0 0 -1.01491 3.19194 -3.05197 4.86732 1.7768 0. 1
</event>
<event>
 4 80 1 -1 -1 -1
 11 -1 0 0 0 0 0 0 4.94939 4.94939 0 0. 9.
 -11 -1 0 0 0 0 0 0 -5 5 0 0. 9.
 15 1 1 2 0 0 0.185886 -4.02937 2.281 4.96296 1.7768 0. 1
 -15 1 1 2 0 0 -0.185886 4.02937 -2.3316 4.98643 1.7768 0. -1
</event>
<event>
 4 80 1 -1 -1 -1
 11 -1 0 0 0 0 0 0 4.99997 4.99997 0 0. 9.
 -11 -1 0 0 0 0 0 0 -4.99887 4.99887 0 0. 9.
 15 1 1 2 0 0 1.12808 0.694881 -4.48064 4.99892 1.7768 0. -1
 -15 1 1 2 0 0 -1.12808 -0.694881 4.48174 4.99992 1.7768 0. 1
</event>
<event>
 4 80 1 -1 -1 -1
 11 -1 0 0 0 0 0 0 5 5 0 0. 9.
 -11 -1 0 0 0 0 0 0 -4.60289 4.60289 0 0. 9.
 15 1 1 2 0 0 -1.25724 -4.27357 0.0859996 4.79679 1.7768 0. 1
 -15 1 1 2 0 0 1.25724 4.27357 0.311109 4.8061 1.7768 0. -1
</event>
<event>
 4 80 1 -1 -1 -1
 11 -1 0 0 0 0 0 0 5 5 0 0. 9.
 -11 -1 0 0 0 0 0 0 -0.915755 0.915755 0 0. 9.
 15 1 1 2 0 0 -0.906654 -0.418124 1.14182 2.33631 1.7768 0. 1
 -15 1 1 2 0 0 0.906654 0.418124 2.94243 3.57945 1.7768 0. -1
</event>
<event>
 4 80 1 -1 -1 -1
 11 -1 0 0 0 0 0 0 5 5 0 0. 9.
 -11 -1 0 0 0 0 0 0 -4.85331 4.85331 0 0. 9.
 15 1 1 2 0 0 2.60741 -3.77949 -0.087059 4.92427 1.7768 0. 1
 -15 1 1 2 0 0 -2.60741 3.77949 0.233744 4.92905 1.7768 0. -1
</event>
<event>
 4 80 1 -1 -1 -1
 11 -1 0 0 0 0 0 0 4.98592 4.98592 0 0. 9.
 -11 -1 0 0 0 0 0 0 -5 5 0 0. 9.
 15 1 1 2 0 0 0.681137 4.61498 -0.106409 4.9931 1.7768 0. 1
 -15 1 1 2 0 0 -0.681137 -4.61498 0.0923331 4.99282 1.7768 0. -1
</event>
<event>
 4 80 1 -1 -1 -1
 11 -1 0 0 0 0 0 0 3.47982 3.47982 0 0. 9.
 -11 -1 0 0 0 0 0 0 -5 5 0 0. 9.
 15 1 1 2 0 0 3.25862 1.84534 -0.28606 4.15493 1.7768 0. -1
 -15 1 1 2 0 0 -3.25862 -1.84534 -1.23412 4.32489 1.7768 0. 1
</event>
<event>
 4 80 1 -1 -1 -1
 11 -1 0 0 0 0 0 0 5 5 0 0. 9.
 -11 -1 0 0 0 0 0 0 -5 5 0 0. 9.
 15 1 1 2 0 0 1.1688 -1.54044 4.25479 5 1.7768 0. 1
 -15 1 1 2 0 0 -1.1688 1.54044 -4.25479 5 1.7768 0. -1
</event>
<event>
 4 80 1 -1 -1 -1
 11 -1 0 0 0 0 0 0 5 5 0 0. 9.
 -11 -1 0 0 0 0 0 0 -3.16429 3.16429 0 0. 9.
 15 1 1 2 0 0 -2.26517 -0.10125 -1.89692 3.44925 1.7768 0. 1
 -15 1 1 2 0 0 2.26517 0.10125 3.73264 4.71504 1.7768 0. -1
</event>
<event>
 4 80 1 -1 -1 -1
 11 -1 0 0 0 0 0 0 5 5 0 0. 9.
 -11 -1 0 0 0 0 0 0 -5 5 0 0. 9.
 15 1 1 2 0 0 -3.56964 2.90235 0.822393 5 1.7768 0. -1
 -15 1 1 2 0 0 3.56964 -2.90235 -0.822393 5 1.7768 0. 1
</event>
<event>
 4 80 1 -1 -1 -1
 11 -1 0 0 0 0 0 0 4.99826 4.99826 0 0. 9.
 -11 -1 0 0 0 0 0 0 -3.97462 3.97462 0 0. 9.
 15 1 1 2 0 0 1.50938 3.01759 2.83445 4.75141 1.7768 0. -1
 -15 1 1 2 0 0 -1.50938 -3.01759 -1.81081 4.22147 1.7768 0. 1
</event>
<event>
 4 80 1 -1 -1 -1
 11 -1 0 0 0 0 0 0 4.99998 4.99998 0 0. 9.
 -11 -1 0 0 0 0 0 0 -4.99816 4.99816 0 0. 9.
 15 1 1 2 0 0 -2.1359 -4.09438 0.712923 4.9992 1.7768 0. 1
 -15 1 1 2 0 0 2.1359 4.09438 -0.711103 4.99894 1.7768 0. -1
</event>
<event>
 4 80 1 -1 -1 -1
 11 -1 0 0 0 0 0 0 4.99998 4.99998 0 0. 9.
 -11 -1 0 0 0 0 0 0 -5 5 0 0. 9.
 15 1 1 2 0 0 3.4338 -2.97068 1.10735 4.99999 1.7768 0. -1
 -15 1 1 2 0 0 -3.4338 2.97068 -1.10737 4.99999 1.7768 0. 1
</event>
<event>
 4 80 1 -1 -1 -1
 11 -1 0 0 0 0 0 0 5 5 0 0. 9.
 -11 -1 0 0 0 0 0 0 -5 5 0 0. 9.
 15 1 1 2 0 0 3.19468 2.63929 -2.16113 5 1.7768 0. -1
 -15 1 1 2 0 0 -3.19468 -2.63929 2.16113 5 1.7768 0. 1
</event>
<event>
 4 80 1 -1 -1 -1
 11 -1 0 0 0 0 0 0 5 5 0 0. 9.
 -11 -1 0 0 0 0 0 0 -5 5 0 0. 9.
 15 1 1 2 0 0 3.72571 2.42124 -1.44878 5 1.7768 0. 1
 -15 1 1 2 0 0 -3.72571 -2.42124 1.44878 5 1.7768 0. -1
</event>
<event>
 4 80 1 -1 -1 -1
 11 -1 0 0 0 0 0 0 4.99946 4.99946 0 0. 9.
 -11 -1 0 0 0 0 0 0 -5 5 0 0. 9.
 15 1 1 2 0 0 -3.20158 1.01104 -3.25101 4.99991 1.7768 0. 1
 -15 1 1 2 0 0 3.20158 -1.01104 3.25047 4.99956 1.7768 0. -1
</event>
<event>
 4 80 1 -1 -1 -1
 11 -1 0 0 0 0 0 0 4.9688 4.9688 0 0. 9.
 -11 -1 0 0 0 0 0 0 -0.96722 0.96722 0 0. 9.
 15 1 1 2 0 0 -0.450103 0.676291 0.65491 2.06073 1.7768 0. 1
 -15 1 1 2 0 0 0.450103 -0.676291 3.34668 3.8753 1.7768 0. -1
</event>
<event>
 4 80 1 -1 -1 -1
 11 -1 0 0 0 0 0 0 4.98912 4.98912 0 0. 9.
 -11 -1 0 0 0 0 0 0 -5 5 0 0. 9.
 15 1 1 2 0 0 1.43862 4.39449 -0.643187 4.99525 1.7768 0. -1
 -15 1 1 2 0 0 -1.43862 -4.39449 0.632307 4.99387 1.7768 0. 1
</event>
<event>
 4 80 1 -1 -1 -1
 11 -1 0 0 0 0 0 0 5 5 0 0. 9.
 -11 -1 0 0 0 0 0 0 -2.66936 2.66936 0 0. 9.
 15 1 1 2 0 0 -2.63675 1.13986 2.6263 4.27866 1.7768 0. -1
 -15 1 1 2 0 0 2.63675 -1.13986 -0.295666 3.3907 1.7768 0. 1
</event>
<event>
 4 80 1 -1 -1 -1
 11 -1 0 0 0 0 0 0 5 5 0 0. 9.
 -11 -1 0 0 0 0 0 0 -4.95319 4.95319 0 0. 9.
 15 1 1 2 0 0 -0.377556 -2.21927 4.09046 4.99572 1.7768 0. 1
 -15 1 1 2 0 0 0.377556 2.21927 -4.04364 4.95746 1.7768 0. -1
</event>
<event>
 4 80 1 -1 -1 -1
 11 -1 0 0 0 0 0 0 5 5 0 0. 9.
 -11 -1 0 0 0 0 0 0 -4.99955 4.99955 0 0. 9.
 15 1 1 2 0 0 -3.20046 3.38698 0.35433 4.99979 1.7768 0. -1
 -15 1 1 2 0 0 3.20046 -3.38698 -0.353881 4.99976 1.7768 0. 1
</event>
<event>
 4 80 1 -1 -1 -1
 11 -1 0 0 0 0 0 0 4.89472 4.89472 0 0. 9.
 -11 -1 0 0 0 0 0 0 -5 5 0 0. 9.
 15 1 1 2 0 0 -0.984643 -1.15958 4.30671 4.90098 1.7768 0. -1
 -15 1 1 2 0 0 0.984643 1.15958 -4.41198 4.99374 1.7768 0. 1
</event>
<event>
 4 80 1 -1 -1 -1
 11 -1 0 0 0 0 0 0 4.99997 4.99997 0 0. 9.
 -11 -1 0 0 0 0 0 0 -5 5 0 0. 9.
 15 1 1 2 0 0 0.0829109 -4.48645 1.30651 4.99998 1.7768 0. 1
 -15 1 1 2 0 0 -0.0829109 4.48645 -1.30654 4.99999 1.7768 0. -1
</event>
<event>
 4 80 1 -1 -1 -1
 11 -1 0 0 0 0 0 0 5 5 0 0. 9.
 -11 -1 0 0 0 0 0 0 -1.40618 1.40618 0 0. 9.
 15 1 1 2 0 0 1.19511 1.01801 3.23058 4.00737 1.7768 0. 1
 -15 1 1 2 0 0 -1.19511 -1.01801 0.363247 2.39881 1.7768 0. -1
</event>
<event>
 4 80 1 -1 -1 -1
 11 -1 0 0 0 0 0 0 4.99902 4.99902 0 0. 9.
 -11 -1 0 0 0 0 0 0 -4.96656 4.96656 0 0. 9.
 15 1 1 2 0 0 -0.596454 -0.232679 4.62714 4.99781 1.7768 0. 1
 -15 1 1 2 0 0 0.596454 0.232679 -4.59469 4.96777 1.7768 0. -1
</event>
<event>
 4 80 1 -1 -1 -1
 11 -1 0 0 0 0 0 0 4.2324 4.2324 0 0. 9.
 -11 -1 0 0 0 0 0 0 -5 5 0 0. 9.
 15 1 1 2 0 0 1.00852 3.59985 -2.39783 4.78365 1.7768 0. 1
 -15 1 1 2 0 0 -1.00852 -3.59985 1.63023 4.44875 1.7768 0. -1
</event>
<event>
 4 80 1 -1 -1 -1
 11 -1 0 0 0 0 0 0 5 5 0 0. 9.
 -11 -1 0 0 0 0 0 0 -5 5 0 0. 9.
 15 1 1 2 0 0 -2.11969 -3.79387 1.71923 5 1.7768 0. 1
 -15 1 1 2 0 0 2.11969 3.79387 -1.71923 5 1.7768 0. -1
</event>
<event>
 4 80 1 -1 -1 -1
 11 -1 0 0 0 0 0 0 4.939 4.939 0 0. 9.
 -11 -1 0 0 0 0 0 0 -4.99999 4.99999 0 0. 9.
 15 1 1 2 0 0 4.33512 -1.03761 -1.32177 4.97742 1.7768 0. 1
 -15 1 1 2 0 0 -4.33512 1.03761 1.26078 4.96157 1.7768 0. -1
</event>
<event>
 4 80 1 -1 -1 -1
 11 -1 0 0 0 0 0 0 5 5 0 0. 9.
 -11 -1 0 0 0 0 0 0 -5 5 0 0. 9.
 15 1 1 2 0 0 2.27718 -1.56223 -3.77044 5 1.7768 0. -1
 -15 1 1 2 0 0 -2.27718 1.56223 3.77043 5 1.7768 0. 1
</event>
<event>
 4 80 1 -1 -1 -1
 11 -1 0 0 0 0 0 0 5 5 0 0. 9.
 -11 -1 0 0 0 0 0 0 -5 5 0 0. 9.
 15 1 1 2 0 0 -0.452195 -0.523252 4.62212 5 1.7768 0. 1
 -15 1 1 2 0 0 0.452195 0.523252 -4.62212 5 1.7768 0. -1
</event>
<event>
 4 80 1 -1 -1 -1
 11 -1 0 0 0 0 0 0 5 5 0 0. 9.
 -11 -1 0 0 0 0 0 0 -5 5 0 0. 9.
 15 1 1 2 0 0 -0.971362 0.436916 -4.55059 5 1.7768 0. -1
 -15 1 1 2 0 0 0.971362 -0.436916 4.55059 5 1.7768 0. 1
</event>
<event>
 4 80 1 -1 -1 -1
 11 -1 0 0 0 0 0 0 2.00287 2.00287 0 0. 9.
 -11 -1 0 0 0 0 0 0 -5 5 0 0. 9.
 15 1 1 2 0 0 -1.24671 1.94443 -2.86337 4.08555 1.7768 0. -1
 -15 1 1 2 0 0 1.24671 -1.94443 -0.133759 2.91732 1.7768 0. 1
</event>
<event>
 4 80 1 -1 -1 -1
 11 -1 0 0 0 0 0 0 5 5 0 0. 9.
 -11 -1 0 0 0 0 0 0 -4.9999 4.9999 0 0. 9.
 15 1 1 2 0 0 -1.91006 4.13931 1.02939 4.99996 1.7768 0. 1
 -15 1 1 2 0 0 1.91006 -4.13931 -1.02928 4.99994 1.7768 0. -1
</event>
<event>
 4 80 1 -1 -1 -1
 11 -1 0 0 0 0 0 0 1.48856 1.48856 0 0. 9.
 -11 -1 0 0 0 0 0 0 -4.9978 4.9978 0 0. 9.
 15 1 1 2 0 0 1.45969 0.419144 -3.42582 4.14733 1.7768 0. -1
 -15 1 1 2 0 0 -1.45969 -0.419144 -0.083408 2.33903 1.7768 0. 1
</event>
<event>
 4 80 1 -1 -1 -1
 11 -1 0 0 0 0 0 0 4.24946 4.24946 0 0. 9.
 -11 -1 0 0 0 0 0 0 -2.90436 2.90436 0 0. 9.
 15 1 1 2 0 0 -2.0696 -1.41297 2.40776 3.90317 1.7768 0. -1
 -15 1 1 2 0 0 2.0696 1.41297 -1.06266 3.25065 1.7768 0. 1
</event>
<event>
 4 80 1 -1 -1 -1
 11 -1 0 0 0 0 0 0 5 5 0 0. 9.
 -11 -1 0 0 0 0 0 0 -5 5 0 0. 9.
 15 1 1 2 0 0 3.01151 -2.54337 -2.51084 5 1.7768 0. -1
 -15 1 1 2 0 0 -3.01151 2.54337 2.51084 5 1.7768 0. 1
</event>
<event>
 4 80 1 -1 -1 -1
 11 -1 0 0 0 0 0 0 4.99976 4.99976 0 0. 9.
 -11 -1 0 0 0 0 0 0 -5 5 0 0. 9.
 15 1 1 2 0 0 -1.16964 1.26992 4.34273 4.99978 1.7768 0. 1
 -15 1 1 2 0 0 1.16964 -1.26992 -4.34297 4.99998 1.7768 0. -1
</event>
<event>
 4 80 1 -1 -1 -1
 11 -1 0 0 0 0 0 0 5 5 0 0. 9.
 -11 -1 0 0 0 0 0 0 -4.93759 4.93759 0 0. 9.
 15 1 1 2 0 0 -4.09181 -1.77331 -1.25047 4.96074 1.7768 0. 1
 -15 1 1 2 0 0 4.09181 1.77331 1.31289 4.97684 1.7768 0. -1
</event>
<event>
 4 80 1 -1 -1 -1
 11 -1 0 0 0 0 0 0 2.84767 2.84767 0 0. 9.
 -11 -1 0 0 0 0 0 0 -5 5 0 0. 9.
 15 1 1 2 0 0 -2.51299 1.7591 -2.42041 4.29251 1.7768 0. 1
 -15 1 1 2 0 0 2.51299 -1.7591 0.268076 3.55516 1.7768 0. -1
</event>
<event>
 4 80 1 -1 -1 -1
 11 -1 0 0 0 0 0 0 5 5 0 0. 9.
 -11 -1 0 0 0 0 0 0 -4.32125 4.32125 0 0. 9.
 15 1 1 2 0 0 -1.34356 0.0488289 -3.75082 4.36278 1.7768 0. -1
 -15 1 1 2 0 0 1.34356 -0.0488289 4.42957 4.95846 1.7768 0. 1
</event>
<event>
 4 80 1 -1 -1 -1
 11 -1 0 0 0 0 0 0 5 5 0 0. 9.
 -11 -1 0 0 0 0 0 0 -4.98003 4.98003 0 0. 9.
 15 1 1 2 0 0 2.28282 -2.19898 3.42988 4.99686 1.7768 0. -1
 -15 1 1 2 0 0 -2.28282 2.19898 -3.4099 4.98317 1.7768 0. 1
</event>
<event>
 4 80 1 -1 -1 -1
 11 -1 0 0 0 0 0 0 4.99999 4.99999 0 0. 9.
 -11 -1 0 0 0 0 0 0 -4.6839 4.6839 0 0. 9.
 15 1 1 2 0 0 -0.798776 3.35794 -2.73278 4.74759 1.7768 0. -1
 -15 1 1 2 0 0 0.798776 -3.35794 3.04887 4.93631 1.7768 0. 1
</event>
<event>
 4 80 1 -1 -1 -1
 11 -1 0 0 0 0 0 0 4.9268 4.9268 0 0. 9.
 -11 -1 0 0 0 0 0 0 -5 5 0 0. 9.
 15 1 1 2 0 0 -0.697912 1.62118 -4.32169 4.995 1.7768 0. -1
 -15 1 1 2 0 0 0.697912 -1.62118 4.24849 4.93181 1.7768 0. 1
</event>
<event>
 4 80 1 -1 -1 -1
 11 -1 0 0 0 0 0 0 5 5 0 0. 9.
 -11 -1 0 0 0 0 0 0 -5 5 0 0. 9.
 15 1 1 2 0 0 -2.357 1.73442 -3.64398 5 1.7768 0. -1
 -15 1 1 2 0 0 2.357 -1.73442 3.64398 5 1.7768 0. 1
</event>
<event>
 4 80 1 -1 -1 -1
 11 -1 0 0 0 0 0 0 4.71046 4.71046 0 0. 9.
 -11 -1 0 0 0 0 0 0 -5 5 0 0. 9.
 15 1 1 2 0 0 -1.1408 -1.22309 4.05199 4.73009 1.7768 0. 1
 -15 1 1 2 0 0 1.1408 1.22309 -4.34154 4.98037 1.7768 0. -1
</event>
<event>
 4 80 1 -1 -1 -1
 11 -1 0 0 0 0 0 0 4.99906 4.99906 0 0. 9.
 -11 -1 0 0 0 0 0 0 -5 5 0 0. 9.
 15 1 1 2 0 0 -2.85983 -3.67452 0.395605 4.99949 1.7768 0. -1
 -15 1 1 2 0 0 2.85983 3.67452 -0.396543 4.99957 1.7768 0. 1
</event>
<event>
 4 80 1 -1 -1 -1
 11 -1 0 0 0 0 0 0 5 5 0 0. 9.
 -11 -1 0 0 0 0 0 0 -0.821651 0.821651 0 0. 9.
 15 1 1 2 0 0 -0.693703 0.683981 2.14426 2.95036 1.7768 0. -1
 -15 1 1 2 0 0 0.693703 -0.683981 2.03408 2.87129 1.7768 0. 1
</event>
<event>
 4 80 1 -1 -1 -1
 11 -1 0 0 0 0 0 0 4.99974 4.99974 0 0. 9.
 -11 -1 0 0 0 0 0 0 -4.99905 4.99905 0 0. 9.
 15 1 1 2 0 0 0.201916 2.10758 -4.16541 4.9991 1.7768 0. -1
 -15 1 1 2 0 0 -0.201916 -2.10758 4.1661 4.99968 1.7768 0. 1
</event>
<event>
 4 80 1 -1 -1 -1
 11 -1 0 0 0 0 0 0 4.82662 4.82662 0 0. 9.
 -11 -1 0 0 0 0 0 0 -4.99976 4.99976 0 0. 9.
 15 1 1 2 0 0 -3.12778 0.955374 -3.29307 4.96968 1.7768 0. 1
 -15 1 1 2 0 0 3.12778 -0.955374 3.11994 4.85669 1.7768 0. -1
</event>
<event>
 4 80 1 -1 -1 -1
 11 -1 0 0 0 0 0 0 4.91598 4.91598 0 0. 9.
 -11 -1 0 0 0 0 0 0 -4.99999 4.99999 0 0. 9.
 15 1 1 2 0 0 -0.696523 -4.47302 0.921918 4.94982 1.7768 0. -1
 -15 1 1 2 0 0 0.696523 4.47302 -1.00593 4.96615 1.7768 0. 1
</event>
<event>
 4 80 1 -1 -1 -1
 11 -1 0 0 0 0 0 0 5 5 0 0. 9.
 -11 -1 0 0 0 0 0 0 -5 5 0 0. 9.
 15 1 1 2 0 0 1.77472 3.3146 -2.77598 5 1.7768 0. 1
 -15 1 1 2 0 0 -1.77472 -3.3146 2.77598 5 1.7768 0. -1
</event>
<event>
 4 80 1 -1 -1 -1
 11 -1 0 0 0 0 0 0 4.99996 4.99996 0 0. 9.
 -11 -1 0 0 0 0 0 0 -5 5 0 0. 9.
 15 1 1 2 0 0 -3.65724 2.904 0.183003 4.99998 1.7768 0. -1
 -15 1 1 2 0 0 3.65724 -2.904 -0.183044 4.99998 1.7768 0. 1
</event>
<event>
 4 80 1 -1 -1 -1
 11 -1 0 0 0 0 0 0 5 5 0 0. 9.
 -11 -1 0 0 0 0 0 0 -4.95343 4.95343 0 0. 9.
 15 1 1 2 0 0 3.05552 3.5016 0.132855 4.97723 1.7768 0. 1
 -15 1 1 2 0 0 -3.05552 -3.5016 -0.0862876 4.9762 1.7768 0. -1
</event>
<event>
 4 80 1 -1 -1 -1
 11 -1 0 0 0 0 0 0 5 5 0 0. 9.
 -11 -1 0 0 0 0 0 0 -4.98826 4.98826 0 0. 9.
 15 1 1 2 0 0 -1.19012 2.79423 -3.53806 4.98996 1.7768 0. -1
 -15 1 1 2 0 0 1.19012 -2.79423 3.54981 4.9983 1.7768 0. 1
</event>
<event>
 4 80 1 -1 -1 -1
 11 -1 0 0 0 0 0 0 5 5 0 0. 9.
 -11 -1 0 0 0 0 0 0 -4.99998 4.99998 0 0. 9.
 15 1 1 2 0 0 -0.431175 -1.55777 -4.38515 4.99998 1.7768 0. -1
 -15 1 1 2 0 0 0.431175 1.55777 4.38517 5 1.7768 0. 1
</event>
<event>
 4 80 1 -1 -1 -1
 11 -1 0 0 0 0 0 0 5 5 0 0. 9.
 -11 -1 0 0 0 0 0 0 -5 5 0 0. 9.
 15 1 1 2 0 0 -4.39637 -0.320788 -1.55282 5 1.7768 0. -1
 -15 1 1 2 0 0 4.39637 0.320788 1.55282 5 1.7768 0. 1
</event>
<event>
 4 80 1 -1 -1 -1
 11 -1 0 0 0 0 0 0 5 5 0 0. 9.
 -11 -1 0 0 0 0 0 0 -4.8936 4.8936 0 0. 9.
 15 1 1 2 0 0 0.930347 3.29301 -3.0455 4.91348 1.7768 0. -1
 -15 1 1 2 0 0 -0.930347 -3.29301 3.1519 4.98012 1.7768 0. 1
</event>
<event>
 4 80 1 -1 -1 -1
 11 -1 0 0 0 0 0 0 5 5 0 0. 9.
 -11 -1 0 0 0 0 0 0 -5 5 0 0. 9.
 15 1 1 2 0 0 2.85554 -0.366661 -3.68154 5 1.7768 0. -1
 -15 1 1 2 0 0 -2.85554 0.366661 3.68154 5 1.7768 0. 1
</event>
<event>
 4 80 1 -1 -1 -1
 11 -1 0 0 0 0 0 0 5 5 0 0. 9.
 -11 -1 0 0 0 0 0 0 -5 5 0 0. 9.
 15 1 1 2 0 0 -1.08683 -4.50742 0.586759 5 1.7768 0. 1
 -15 1 1 2 0 0 1.08683 4.50742 -0.586759 5 1.7768 0. -1
</event>
<event>
 4 80 1 -1 -1 -1
 11 -1 0 0 0 0 0 0 5 5 0 0. 9.
 -11 -1 0 0 0 0 0 0 -5 5 0 0. 9.
 15 1 1 2 0 0 4.51458 1.01448 0.657037 5 1.7768 0. -1
 -15 1 1 2 0 0 -4.51458 -1.01448 -0.657037 5 1.7768 0. 1
</event>
<event>
 4 80 1 -1 -1 -1
 11 -1 0 0 0 0 0 0 5 5 0 0. 9.
 -11 -1 0 0 0 0 0 0 -4.99999 4.99999 0 0. 9.
 15 1 1 2 0 0 4.60917 -0.0298871 0.772608 5 1.7768 0. -1
 -15 1 1 2 0 0 -4.60917 0.0298871 -0.772601 5 1.7768 0. 1
</event>
<event>
 4 80 1 -1 -1 -1
 11 -1 0 0 0 0 0 0 5 5 0 0. 9.
 -11 -1 0 0 0 0 0 0 -1.35312 1.35312 0 0. 9.
 15 1 1 2 0 0 0.918125 -0.882572 0.102406 2.18863 1.7768 0. -1
 -15 1 1 2 0 0 -0.918125 0.882572 3.54448 4.16449 1.7768 0. 1
</event>
<event>
 4 80 1 -1 -1 -1
 11 -1 0 0 0 0 0 0 4.99681 4.99681 0 0. 9.
 -11 -1 0 0 0 0 0 0 -4.69768 4.69768 0 0. 9.
 15 1 1 2 0 0 1.2144 -1.58979 -3.89135 4.72256 1.7768 0. 1
 -15 1 1 2 0 0 -1.2144 1.58979 4.19049 4.97193 1.7768 0. -1
</event>
<event>
 4 80 1 -1 -1 -1
 11 -1 0 0 0 0 0 0 2.20119 2.20119 0 0. 9.
 -11 -1 0 0 0 0 0 0 -5 5 0 0. 9.
 15 1 1 2 0 0 1.60388 -1.97058 -0.118636 3.10281 1.7768 0. -1
 -15 1 1 2 0 0 -1.60388 1.97058 -2.68017 4.09838 1.7768 0. 1
</event>
<event>
 4 80 1 -1 -1 -1
 11 -1 0 0 0 0 0 0 4.99997 4.99997 0 0. 9.
 -11 -1 0 0 0 0 0 0 -5 5 0 0. 9.
 15 1 1 2 0 0 2.64123 0.154544 3.85253 4.99997 1.7768 0. -1
 -15 1 1 2 0 0 -2.64123 -0.154544 -3.85257 5 1.7768 0. 1
</event>
<event>
 4 80 1 -1 -1 -1
 11 -1 0 0 0 0 0 0 5 5 0 0. 9.
 -11 -1 0 0 0 0 0 0 -3.86117 3.86117 0 0. 9.
 15 1 1 2 0 0 2.994 0.171814 3.26659 4.77722 1.7768 0. -1
 -15 1 1 2 0 0 -2.994 -0.171814 -2.12776 4.08395 1.7768 0. 1
</event>
<event>
 4 80 1 -1 -1 -1
 11 -1 0 0 0 0 0 0 5 5 0 0. 9.
 -11 -1 0 0 0 0 0 0 -5 5 0 0. 9.
 15 1 1 2 0 0 0.994544 0.2311 4.56067 5 1.7768 0. 1
 -15 1 1 2 0 0 -0.994544 -0.2311 -4.56067 5 1.7768 0. -1
</event>
<event>
 4 80 1 -1 -1 -1
 11 -1 0 0 0 0 0 0 5 5 0 0. 9.
 -11 -1 0 0 0 0 0 0 -5 5 0 0. 9.
 15 1 1 2 0 0 3.71624 2.10128 -1.9017 5 1.7768 0. 1
 -15 1 1 2 0 0 -3.71624 -2.10128 1.9017 5 1.7768 0. -1
</event>
<event>
 4 80 1 -1 -1 -1
 11 -1 0 0 0 0 0 0 5 5 0 0. 9.
 -11 -1 0 0 0 0 0 0 -5 5 0 0. 9.
 15 1 1 2 0 0 1.57696 0.16461 -4.39641 5 1.7768 0. -1
 -15 1 1 2 0 0 -1.57696 -0.16461 4.39641 5 1.7768 0. 1
</event>
<event>
 4 80 1 -1 -1 -1
 11 -1 0 0 0 0 0 0 5 5 0 0. 9.
 -11 -1 0 0 0 0 0 0 -4.99448 4.99448 0 0. 9.
 15 1 1 2 0 0 3.76867 -1.4745 2.33464 4.99853 1.7768 0. 1
 -15 1 1 2 0 0 -3.76867 1.4745 -2.32911 4.99595 1.7768 0. -1
</event>
<event>
 4 80 1 -1 -1 -1
 11 -1 0 0 0 0 0 0 5 5 0 0. 9.
 -11 -1 0 0 0 0 0 0 -5 5 0 0. 9.
 15 1 1 2 0 0 1.92005 4.25482 -0.228429 5 1.7768 0. -1
 -15 1 1 2 0 0 -1.92005 -4.25482 0.228429 5 1.7768 0. 1
</event>
<event>
 4 80 1 -1 -1 -1
 11 -1 0 0 0 0 0 0 4.89231 4.89231 0 0. 9.
 -11 -1 0 0 0 0 0 0 -4.98555 4.98555 0 0. 9.
 15 1 1 2 0 0 -2.87941 2.88602 -2.19451 4.95921 1.7768 0. 1
 -15 1 1 2 0 0 2.87941 -2.88602 2.10127 4.91866 1.7768 0. -1
</event>
<event>
 4 80 1 -1 -1 -1
 11 -1 0 0 0 0 0 0 4.99999 4.99999 0 0. 9.
 -11 -1 0 0 0 0 0 0 -5 5 0 0. 9.
 15 1 1 2 0 0 0.061616 3.80224 -2.71688 5 1.7768 0. 1
 -15 1 1 2 0 0 -0.061616 -3.80224 2.71687 4.99999 1.7768 0. -1
</event>
<event>
 4 80 1 -1 -1 -1
 11 -1 0 0 0 0 0 0 5 5 0 0. 9.
 -11 -1 0 0 0 0 0 0 -4.95212 4.95212 0 0. 9.
 15 1 1 2 0 0 0.334802 1.12769 -4.47268 4.95443 1.7768 0. 1
 -15 1 1 2 0 0 -0.334802 -1.12769 4.52056 4.99769 1.7768 0. -1
</event>
<event>
 4 80 1 -1 -1 -1
 11 -1 0 0 0 0 0 0 2.84763 2.84763 0 0. 9.
 -11 -1 0 0 0 0 0 0 -4.997 4.997 0 0. 9.
 15 1 1 2 0 0 2.43026 1.09422 0.996664 3.35478 1.7768 0. -1
 -15 1 1 2 0 0 -2.43026 -1.09422 -3.14603 4.48985 1.7768 0. 1
</event>
<event>
 4 80 1 -1 -1 -1
 11 -1 0 0 0 0 0 0 5 5 0 0. 9.
 -11 -1 0 0 0 0 0 0 -5 5 0 0. 9.
 15 1 1 2 0 0 -0.324271 3.8396 2.64473 5 1.7768 0. 1
 -15 1 1 2 0 0 0.324271 -3.8396 -2.64473 5 1.7768 0. -1
</event>
<event>
 4 80 1 -1 -1 -1
 11 -1 0 0 0 0 0 0 4.99977 4.99977 0 0. 9.
 -11 -1 0 0 0 0 0 0 -5 5 0 0. 9.
 15 1 1 2 0 0 1.9127 -3.79583 -1.94289 4.99993 1.7768 0. 1
 -15 1 1 2 0 0 -1.9127 3.79583 1.94266 4.99984 1.7768 0. -1
</event>
<event>
 4 80 1 -1 -1 -1
 11 -1 0 0 0 0 0 0 4.99876 4.99876 0 0. 9.
 -11 -1 0 0 0 0 0 0 -1.71488 1.71488 0 0. 9.
 15 1 1 2 0 0 2.20596 -0.187866 2.46311 3.75848 1.7768 0. 1
 -15 1 1 2 0 0 -2.20596 0.187866 0.820773 2.95516 1.7768 0. -1
</event>
<event>
 4 80 1 -1 -1 -1
 11 -1 0 0 0 0 0 0 4.99997 4.99997 0 0. 9.
 -11 -1 0 0 0 0 0 0 -3.81205 3.81205 0 0. 9.
 15 1 1 2 0 0 -0.194989 -0.780845 4.53566 4.93738 1.7768 0. 1
 -15 1 1 2 0 0 0.194989 0.780845 -3.34774 3.87464 1.7768 0. -1
</event>
<event>
 4 80 1 -1 -1 -1
 11 -1 0 0 0 0 0 0 5 5 0 0. 9.
 -11 -1 0 0 0 0 0 0 -5 5 0 0. 9.
 15 1 1 2 0 0 2.11238 4.08376 -0.83848 5 1.7768 0. 1
 -15 1 1 2 0 0 -2.11238 -4.08376 0.838479 5 1.7768 0. -1
</event>
<event>
 4 80 1 -1 -1 -1
 11 -1 0 0 0 0 0 0 5 5 0 0. 9.
 -11 -1 0 0 0 0 0 0 -5 5 0 0. 9.
 15 1 1 2 0 0 -2.53263 3.91985 0.250617 5 1.7768 0. -1
 -15 1 1 2 0 0 2.53263 -3.91985 -0.250617 5 1.7768 0. 1
</event>
<event>
 4 80 1 -1 -1 -1
 11 -1 0 0 0 0 0 0 5 5 0 0. 9.
 -11 -1 0 0 0 0 0 0 -4.99651 4.99651 0 0. 9.
 15 1 1 2 0 0 0.10426 -2.24846 -4.09195 4.99683 1.7768 0. -1
 -15 1 1 2 0 0 -0.10426 2.24846 4.09544 4.99968 1.7768 0. 1
</event>
<event>
 4 80 1 -1 -1 -1
 11 -1 0 0 0 0 0 0 4.99999 4.99999 0 0. 9.
 -11 -1 0 0 0 0 0 0 -5 5 0 0. 9.
 15 1 1 2 0 0 -1.74365 -3.20334 -2.92242 5 1.7768 0. 1
 -15 1 1 2 0 0 1.74365 3.20334 2.92241 4.99999 1.7768 0. -1
</event>
<event>
 4 80 1 -1 -1 -1
 11 -1 0 0 0 0 0 0 5 5 0 0. 9.
 -11 -1 0 0 0 0 0 0 -4.95309 4.95309 0 0. 9.
 15 1 1 2 0 0 -0.572053 -4.43796 -1.23554 4.97061 1.7768 0. -1
 -15 1 1 2 0 0 0.572053 4.43796 1.28245 4.98248 1.7768 0. 1
</event>
<event>
 4 80 1 -1 -1 -1
 11 -1 0 0 0 0 0 0 4.92307 4.92307 0 0. 9.
 -11 -1 0 0 0 0 0 0 -5 5 0 0. 9.
 15 1 1 2 0 0 1.69966 -2.19452 3.67013 4.93278 1.7768 0. 1
 -15 1 1 2 0 0 -1.69966 2.19452 -3.74706 4.99029 1.7768 0. -1
</event>
<event>
 4 80 1 -1 -1 -1
 11 -1 0 0 0 0 0 0 4.87238 4.87238 0 0. 9.
 -11 -1 0 0 0 0 0 0 -4.99928 4.99928 0 0. 9.
 15 1 1 2 0 0 0.755142 -0.371011 4.46382 4.87764 1.7768 0. 1
 -15 1 1 2 0 0 -0.755142 0.371011 -4.59072 4.99403 1.7768 0. -1
</event>
<event>
 4 80 1 -1 -1 -1
 11 -1 0 0 0 0 0 0 3.02764 3.02764 0 0. 9.
 -11 -1 0 0 0 0 0 0 -4.99959 4.99959 0 0. 9.
 15 1 1 2 0 0 1.9489 0.757798 -3.8312 4.71257 1.7768 0. -1
 -15 1 1 2 0 0 -1.9489 -0.757798 1.85925 3.31467 1.7768 0. 1
</event>
<event>
 4 80 1 -1 -1 -1
 11 -1 0 0 0 0 0 0 5 5 0 0. 9.
 -11 -1 0 0 0 0 0 0 -5 5 0 0. 9.
 15 1 1 2 0 0 3.42763 1.07918 2.98814 5 1.7768 0. -1
 -15 1 1 2 0 0 -3.42763 -1.07918 -2.98814 5 1.7768 0. 1
</event>
<event>
 4 80 1 -1 -1 -1
 11 -1 0 0 0 0 0 0 1.93684 1.93684 0 0. 9.
 -11 -1 0 0 0 0 0 0 -4.86228 4.86228 0 0. 9.
 15 1 1 2 0 0 -0.880729 0.979572 -3.81908 4.41343 1.7768 0. -1
 -15 1 1 2 0 0 0.880729 -0.979572 0.89364 2.3857 1.7768 0. 1
</event>
<event>
 4 80 1 -1 -1 -1
 11 -1 0 0 0 0 0 0 4.79954 4.79954 0 0. 9.
 -11 -1 0 0 0 0 0 0 -2.57152 2.57152 0 0. 9.
 15 1 1 2 0 0 1.78669 -0.565535 -1.38453 2.93031 1.7768 0. -1
 -15 1 1 2 0 0 -1.78669 0.565535 3.61254 4.44075 1.7768 0. 1
</event>
<event>
 4 80 1 -1 -1 -1
 11 -1 0 0 0 0 0 0 5 5 0 0. 9.
 -11 -1 0 0 0 0 0 0 -5 5 0 0. 9.
 15 1 1 2 0 0 -0.152682 -3.17676 3.42449 5 1.7768 0. -1
 -15 1 1 2 0 0 0.152682 3.17676 -3.42449 5 1.7768 0. 1
</event>
<event>
 4 80 1 -1 -1 -1
 11 -1 0 0 0 0 0 0 1.07908 1.07908 0 0. 9.
 -11 -1 0 0 0 0 0 0 -5 5 0 0. 9.
 15 1 1 2 0 0 -0.644518 0.57557 -3.55829 4.07012 1.7768 0. 1
 -15 1 1 2 0 0 0.644518 -0.57557 -0.362629 2.00896 1.7768 0. -1
</event>
<event>
 4 80 1 -1 -1 -1
 11 -1 0 0 0 0 0 0 4.51285 4.51285 0 0. 9.
 -11 -1 0 0 0 0 0 0 -4.99487 4.99487 0 0. 9.
 15 1 1 2 0 0 2.19997 3.24337 -2.2496 4.85569 1.7768 0. -1
 -15 1 1 2 0 0 -2.19997 -3.24337 1.76758 4.65203 1.7768 0. 1
</event>
<event>
 4 80 1 -1 -1 -1
 11 -1 0 0 0 0 0 0 5 5 0 0. 9.
 -11 -1 0 0 0 0 0 0 -5 5 0 0. 9.
 15 1 1 2 0 0 -2.35907 -2.30823 3.30894 5 1.7768 0. -1
 -15 1 1 2 0 0 2.35907 2.30823 -3.30894 5 1.7768 0. 1
</event>
<event>
 4 80 1 -1 -1 -1
 11 -1 0 0 0 0 0 0 4.99999 4.99999 0 0. 9.
 -11 -1 0 0 0 0 0 0 -4.92279 4.92279 0 0. 9.
 15 1 1 2 0 0 -1.90058 -4.05369 -1.14955 4.95215 1.7768 0. -1
 -15 1 1 2 0 0 1.90058 4.05369 1.22674 4.97063 1.7768 0. 1
</event>
<event>
 4 80 1 -1 -1 -1
 11 -1 0 0 0 0 0 0 5 5 0 0. 9.
 -11 -1 0 0 0 0 0 0 -5 5 0 0. 9.
 15 1 1 2 0 0 -1.0018 0.683507 4.51348 5 1.7768 0. -1
 -15 1 1 2 0 0 1.0018 -0.683507 -4.51348 5 1.7768 0. 1
</event>
<event>
 4 80 1 -1 -1 -1
 11 -1 0 0 0 0 0 0 5 5 0 0. 9.
 -11 -1 0 0 0 0 0 0 -5 5 0 0. 9.
 15 1 1 2 0 0 -3.45435 2.18291 2.26818 5 1.7768 0. -1
 -15 1 1 2 0 0 3.45435 -2.18291 -2.26818 5 1.7768 0. 1
</event>
<event>
 4 80 1 -1 -1 -1
 11 -1 0 0 0 0 0 0 5 5 0 0. 9.
 -11 -1 0 0 0 0 0 0 -5 5 0 0. 9.
 15 1 1 2 0 0 -0.247266 -4.19507 -2.04512 5 1.7768 0. 1
 -15 1 1 2 0 0 0.247266 4.19507 2.04512 5 1.7768 0. -1
</event>
<event>
 4 80 1 -1 -1 -1
 11 -1 0 0 0 0 0 0 5 5 0 0. 9.
 -11 -1 0 0 0 0 0 0 -5 5 0 0. 9.
 15 1 1 2 0 0 2.38501 1.79576 3.59572 5 1.7768 0. -1
 -15 1 1 2 0 0 -2.38501 -1.79576 -3.59572 5 1.7768 0. 1
</event>
<event>
 4 80 1 -1 -1 -1
 11 -1 0 0 0 0 0 0 5 5 0 0. 9.
 -11 -1 0 0 0 0 0 0 -4.87107 4.87107 0 0. 9.
 15 1 1 2 0 0 -2.65483 3.6494 -0.847409 4.92363 1.7768 0. 1
 -15 1 1 2 0 0 2.65483 -3.6494 0.976337 4.94745 1.7768 0. -1
</event>
<event>
 4 80 1 -1 -1 -1
 11 -1 0 0 0 0 0 0 5 5 0 0. 9.
 -11 -1 0 0 0 0 0 0 -4.99955 4.99955 0 0. 9.
 15 1 1 2 0 0 -0.519687 4.5891 -0.713968 4.99974 1.7768 0. 1
 -15 1 1 2 0 0 0.519687 -4.5891 0.71442 4.99981 1.7768 0. -1
</event>
<event>
 4 80 1 -1 -1 -1
 11 -1 0 0 0 0 0 0 5 5 0 0. 9.
 -11 -1 0 0 0 0 0 0 -5 5 0 0. 9.
 15 1 1 2 0 0 -0.0855994 -4.54128 -1.10076 5 1.7768 0. 1
 -15 1 1 2 0 0 0.0855994 4.54128 1.10076 5 1.7768 0. -1
</event>
<event>
 4 80 1 -1 -1 -1
 11 -1 0 0 0 0 0 0 4.95029 4.95029 0 0. 9.
 -11 -1 0 0 0 0 0 0 -4.85151 4.85151 0 0. 9.
 15 1 1 2 0 0 -0.310354 3.60557 2.8356 4.92898 1.7768 0. 1
 -15 1 1 2 0 0 0.310354 -3.60557 -2.73683 4.87282 1.7768 0. -1
</event>
<event>
 4 80 1 -1 -1 -1
 11 -1 0 0 0 0 0 0 5 5 0 0. 9.
 -11 -1 0 0 0 0 0 0 -5 5 0 0. 9.
 15 1 1 2 0 0 -0.910638 2.7985 -3.63062 5 1.7768 0. -1
 -15 1 1 2 0 0 0.910638 -2.7985 3.63062 5 1.7768 0. 1
</event>
<event>
 4 80 1 -1 -1 -1
 11 -1 0 0 0 0 0 0 4.99198 4.99198 0 0. 9.
 -11 -1 0 0 0 0 0 0 -4.99999 4.99999 0 0. 9.
 15 1 1 2 0 0 2.32307 2.02632 3.50305 4.99317 1.7768 0. 1
 -15 1 1 2 0 0 -2.32307 -2.02632 -3.51106 4.99879 1.7768 0. -1
</event>
<event>
 4 80 1 -1 -1 -1
 11 -1 0 0 0 0 0 0 5 5 0 0. 9.
 -11 -1 0 0 0 0 0 0 -2.50558 2.50558 0 0. 9.
 15 1 1 2 0 0 1.97217 2.33826 1.12507 3.7122 1.7768 0. -1
 -15 1 1 2 0 0 -1.97217 -2.33826 1.36935 3.79338 1.7768 0. 1
</event>
<event>
 4 80 1 -1 -1 -1
 11 -1 0 0 0 0 0 0 0.756931 0.756931 0 0. 9.
 -11 -1 0 0 0 0 0 0 -4.99706 4.99706 0 0. 9.
 15 1 1 2 0 0 -0.451386 0.116615 -1.17592 2.18125 1.7768 0. -1
 -15 1 1 2 0 0 0.451386 -0.116615 -3.06421 3.57274 1.7768 0. 1
</event>
<event>
 4 80 1 -1 -1 -1
 11 -1 0 0 0 0 0 0 1.62326 1.62326 0 0. 9.
 -11 -1 0 0 0 0 0 0 -5 5 0 0. 9.
 15 1 1 2 0 0 0.45279 1.43362 0.221073 2.33814 1.7768 0. -1
 -15 1 1 2 0 0 -0.45279 -1.43362 -3.59781 4.28512 1.7768 0. 1
</event>
<event>
 4 80 1 -1 -1 -1
 11 -1 0 0 0 0 0 0 5 5 0 0. 9.
 -11 -1 0 0 0 0 0 0 -5 5 0 0. 9.
 15 1 1 2 0 0 1.75686 -2.96942 3.1525 5 1.7768 0. -1
 -15 1 1 2 0 0 -1.75686 2.96942 -3.1525 5 1.7768 0. 1
</event>
<event>
 4 80 1 -1 -1 -1
 11 -1 0 0 0 0 0 0 5 5 0 0. 9.
 -11 -1 0 0 0 0 0 0 -5 5 0 0. 9.
 15 1 1 2 0 0 -0.493457 2.34103 4.01476 5 1.7768 0. 1
 -15 1 1 2 0 0 0.493457 -2.34103 -4.01476 5 1.7768 0. -1
</event>
<event>
 4 80 1 -1 -1 -1
 11 -1 0 0 0 0 0 0 5 5 0 0. 9.
 -11 -1 0 0 0 0 0 0 -5 5 0 0. 9.
 15 1 1 2 0 0 -0.938544 -1.74157 4.23419 5 1.7768 0. 1
 -15 1 1 2 0 0 0.938544 1.74157 -4.23419 5 1.7768 0. -1
</event>
<event>
 4 80 1 -1 -1 -1
 11 -1 0 0 0 0 0 0 4.9999 4.9999 0 0. 9.
 -11 -1 0 0 0 0 0 0 -0.739727 0.739727 0 0. 9.
 15 1 1 2 0 0 -0.146113 0.349597 1.18955 2.17171 1.7768 0. -1
 -15 1 1 2 0 0 0.146113 -0.349597 3.07062 3.56791 1.7768 0. 1
</event>
<event>
 4 80 1 -1 -1 -1
 11 -1 0 0 0 0 0 0 5 5 0 0. 9.
 -11 -1 0 0 0 0 0 0 -5 5 0 0. 9.
 15 1 1 2 0 0 2.00342 -1.50672 -3.94441 5 1.7768 0. -1
 -15 1 1 2 0 0 -2.00342 1.50672 3.94441 5 1.7768 0. 1
</event>
<event>
 4 80 1 -1 -1 -1
 11 -1 0 0 0 0 0 0 4.95743 4.95743 0 0. 9.
 -11 -1 0 0 0 0 0 0 -4.77703 4.77703 0 0. 9.
 15 1 1 2 0 0 1.50382 -0.197379 -4.17944 4.7881 1.7768 0. 1
 -15 1 1 2 0 0 -1.50382 0.197379 4.35984 4.94635 1.7768 0. -1
</event>
<event>
 4 80 1 -1 -1 -1
 11 -1 0 0 0 0 0 0 4.94967 4.94967 0 0. 9.
 -11 -1 0 0 0 0 0 0 -5 5 0 0. 9.
 15 1 1 2 0 0 0.854017 -2.18708 -4.03495 4.99512 1.7768 0. -1
 -15 1 1 2 0 0 -0.854017 2.18708 3.98462 4.95456 1.7768 0. 1
</event>
<event>
 4 80 1 -1 -1 -1
 11 -1 0 0 0 0 0 0 3.7948 3.7948 0 0. 9.
 -11 -1 0 0 0 0 0 0 -5 5 0 0. 9.
 15 1 1 2 0 0 -2.85249 -0.895624 -3.25006 4.7602 1.7768 0. 1
 -15 1 1 2 0 0 2.85249 0.895624 2.04486 4.03461 1.7768 0. -1
</event>
<event>
 4 80 1 -1 -1 -1
 11 -1 0 0 0 0 0 0 5 5 0 0. 9.
 -11 -1 0 0 0 0 0 0 -4.99944 4.99944 0 0. 9.
 15 1 1 2 0 0 2.7292 -3.51906 -1.41647 4.99964 1.7768 0. 1
 -15 1 1 2 0 0 -2.7292 3.51906 1.41703 4.9998 1.7768 0. -1
</event>
<event>
 4 80 1 -1 -1 -1
 11 -1 0 0 0 0 0 0 4.46348 4.46348 0 0. 9.
 -11 -1 0 0 0 0 0 0 -5 5 0 0. 9.
 15 1 1 2 0 0 3.1385 -3.0375 0.0204573 4.71537 1.7768 0. -1
 -15 1 1 2 0 0 -3.1385 3.0375 -0.55698 4.74811 1.7768 0. 1
</event>
<event>
 4 80 1 -1 -1 -1
 11 -1 0 0 0 0 0 0 5 5 0 0. 9.
 -11 -1 0 0 0 0 0 0 -5 5 0 0. 9.
 15 1 1 2 0 0 -0.252223 -2.84595 -3.69854 5 1.7768 0. 1
 -15 1 1 2 0 0 0.252223 2.84595 3.69854 5 1.7768 0. -1
</event>
<event>
 4 80 1 -1 -1 -1
 11 -1 0 0 0 0 0 0 4.95465 4.95465 0 0. 9.
 -11 -1 0 0 0 0 0 0 -4.99995 4.99995 0 0. 9.
 15 1 1 2 0 0 -1.26405 -4.45445 0.396114 4.97539 1.7768 0. 1
 -15 1 1 2 0 0 1.26405 4.45445 -0.441407 4.97921 1.7768 0. -1
</event>
<event>
 4 80 1 -1 -1 -1
 11 -1 0 0 0 0 0 0 5 5 0 0. 9.
 -11 -1 0 0 0 0 0 0 -5 5 0 0. 9.
 15 1 1 2 0 0 1.52391 -1.48497 -4.16111 5 1.7768 0. 1
 -15 1 1 2 0 0 -1.52391 1.48497 4.16111 5 1.7768 0. -1
</event>
<event>
 4 80 1 -1 -1 -1
 11 -1 0 0 0 0 0 0 4.67543 4.67543 0 0. 9.
 -11 -1 0 0 0 0 0 0 -4.37265 4.37265 0 0. 9.
 15 1 1 2 0 0 -3.53976 -1.47103 -1.45962 4.47013 1.7768 0. 1
 -15 1 1 2 0 0 3.53976 1.47103 1.76241 4.57795 1.7768 0. -1
</event>
<event>
 4 80 1 -1 -1 -1
 11 -1 0 0 0 0 0 0 5 5 0 0. 9.
 -11 -1 0 0 0 0 0 0 -4.91443 4.91443 0 0. 9.
 15 1 1 2 0 0 0.43617 3.1906 -3.28063 4.92853 1.7768 0. -1
 -15 1 1 2 0 0 -0.43617 -3.1906 3.36619 4.9859 1.7768 0. 1
</event>
<event>
 4 80 1 -1 -1 -1
 11 -1 0 0 0 0 0 0 2.87705 2.87705 0 0. 9.
 -11 -1 0 0 0 0 0 0 -4.99997 4.99997 0 0. 9.
 15 1 1 2 0 0 2.11805 -2.46899 -1.89569 4.16334 1.7768 0. -1
 -15 1 1 2 0 0 -2.11805 2.46899 -0.227227 3.71368 1.7768 0. 1
</event>
<event>
 4 80 1 -1 -1 -1
 11 -1 0 0 0 0 0 0 5 5 0 0. 9.
 -11 -1 0 0 0 0 0 0 -5 5 0 0. 9.
 15 1 1 2 0 0 4.17966 1.15239 1.74491 5 1.7768 0. -1
 -15 1 1 2 0 0 -4.17966 -1.15239 -1.74491 5 1.7768 0. 1
</event>
<event>
 4 80 1 -1 -1 -1
 11 -1 0 0 0 0 0 0 4.98551 4.98551 0 0. 9.
 -11 -1 0 0 0 0 0 0 -4.99999 4.99999 0 0. 9.
 15 1 1 2 0 0 -1.36263 0.162137 4.45222 4.98629 1.7768 0. -1
 -15 1 1 2 0 0 1.36263 -0.162137 -4.4667 4.99922 1.7768 0. 1
</event>
<event>
 4 80 1 -1 -1 -1
 11 -1 0 0 0 0 0 0 5 5 0 0. 9.
 -11 -1 0 0 0 0 0 0 -5 5 0 0. 9.
 15 1 1 2 0 0 0.33945 -2.04287 -4.18971 5 1.7768 0. 1
 -15 1 1 2 0 0 -0.33945 2.04287 4.18972 5 1.7768 0. -1
</event>
<event>
 4 80 1 -1 -1 -1
 11 -1 0 0 0 0 0 0 5 5 0 0. 9.
 -11 -1 0 0 0 0 0 0 -4.99917 4.99917 0 0. 9.
 15 1 1 2 0 0 -1.63151 3.70661 2.33222 4.99978 1.7768 0. 1
 -15 1 1 2 0 0 1.63151 -3.70661 -2.33139 4.99939 1.7768 0. -1
</event>
<event>
 4 80 1 -1 -1 -1
 11 -1 0 0 0 0 0 0 4.99976 4.99976 0 0. 9.
 -11 -1 0 0 0 0 0 0 -4.98463 4.98463 0 0. 9.
 15 1 1 2 0 0 2.19247 3.19822 2.60155 4.99613 1.7768 0. -1
 -15 1 1 2 0 0 -2.19247 -3.19822 -2.58642 4.98826 1.7768 0. 1
</event>
<event>
 4 80 1 -1 -1 -1
 11 -1 0 0 0 0 0 0 4.99976 4.99976 0 0. 9.
 -11 -1 0 0 0 0 0 0 -5 5 0 0. 9.
 15 1 1 2 0 0 -0.291893 -4.27458 1.86639 4.99983 1.7768 0. 1
 -15 1 1 2 0 0 0.291893 4.27458 -1.86663 4.99992 1.7768 0. -1
</event>
<event>
 4 80 1 -1 -1 -1
 11 -1 0 0 0 0 0 0 5 5 0 0. 9.
 -11 -1 0 0 0 0 0 0 -4.99999 4.99999 0 0. 9.
 15 1 1 2 0 0 -2.69487 -1.03682 3.6749 5 1.7768 0. 1
 -15 1 1 2 0 0 2.69487 1.03682 -3.67489 4.99999 1.7768 0. -1
</event>
<event>
 4 80 1 -1 -1 -1
 11 -1 0 0 0 0 0 0 5 5 0 0. 9.
 -11 -1 0 0 0 0 0 0 -5 5 0 0. 9.
 15 1 1 2 0 0 3.27422 -1.082 3.15453 5 1.7768 0. -1
 -15 1 1 2 0 0 -3.27422 1.082 -3.15453 5 1.7768 0. 1
</event>
<event>
 4 80 1 -1 -1 -1
 11 -1 0 0 0 0 0 0 4.99998 4.99998 0 0. 9.
 -11 -1 0 0 0 0 0 0 -4.99984 4.99984 0 0. 9.
 15 1 1 2 0 0 4.09374 1.05054 1.99482 4.99993 1.7768 0. -1
 -15 1 1 2 0 0 -4.09374 -1.05054 -1.99468 4.99988 1.7768 0. 1
</event>
<event>
 4 80 1 -1 -1 -1
 11 -1 0 0 0 0 0 0 5 5 0 0. 9.
 -11 -1 0 0 0 0 0 0 -5 5 0 0. 9.
 15 1 1 2 0 0 -0.755926 0.623988 4.56963 5 1.7768 0. 1
 -15 1 1 2 0 0 0.755926 -0.623988 -4.56963 5 1.7768 0. -1
</event>
<event>
 4 80 1 -1 -1 -1
 11 -1 0 0 0 0 0 0 5 5 0 0. 9.
 -11 -1 0 0 0 0 0 0 -3.11269 3.11269 0 0. 9.
 15 1 1 2 0 0 2.60642 -1.18019 3.05572 4.54769 1.7768 0. 1
 -15 1 1 2 0 0 -2.60642 1.18019 -1.16841 3.565 1.7768 0. -1
</event>
<event>
 4 80 1 -1 -1 -1
 11 -1 0 0 0 0 0 0 5 5 0 0. 9.
 -11 -1 0 0 0 0 0 0 -5 5 0 0. 9.
 15 1 1 2 0 0 -1.4859 -1.67038 -4.10417 5 1.7768 0. -1
 -15 1 1 2 0 0 1.4859 1.67038 4.10417 5 1.7768 0. 1
</event>
<event>
 4 80 1 -1 -1 -1
 11 -1 0 0 0 0 0 0 4.9925 4.9925 0 0. 9.
 -11 -1 0 0 0 0 0 0 -4.99991 4.99991 0 0. 9.
 15 1 1 2 0 0 0.154257 1.1919 -4.5159 4.99955 1.7768 0. 1
 -15 1 1 2 0 0 -0.154257 -1.1919 4.50849 4.99286 1.7768 0. -1
</event>
<event>
 4 80 1 -1 -1 -1
 11 -1 0 0 0 0 0 0 5 5 0 0. 9.
 -11 -1 0 0 0 0 0 0 -5 5 0 0. 9.
 15 1 1 2 0 0 -4.47356 -1.35257 -0.0089425 5 1.7768 0. 1
 -15 1 1 2 0 0 4.47356 1.35257 0.00894251 5 1.7768 0. -1
</event>
<event>
 4 80 1 -1 -1 -1
 11 -1 0 0 0 0 0 0 3.10138 3.10138 0 0. 9.
 -11 -1 0 0 0 0 0 0 -5 5 0 0. 9.
 15 1 1 2 0 0 1.6344 -2.22374 1.28853 3.52624 1.7768 0. 1
 -15 1 1 2 0 0 -1.6344 2.22374 -3.18715 4.57514 1.7768 0. -1
</event>
<event>
 4 80 1 -1 -1 -1
 11 -1 0 0 0 0 0 0 4.86431 4.86431 0 0. 9.
 -11 -1 0 0 0 0 0 0 -5 5 0 0. 9.
 15 1 1 2 0 0 4.55461 0.231215 -0.672757 4.94048 1.7768 0. 1
 -15 1 1 2 0 0 -4.55461 -0.231215 0.537069 4.92383 1.7768 0. -1
</event>
<event>
 4 80 1 -1 -1 -1
 11 -1 0 0 0 0 0 0 4.83425 4.83425 0 0. 9.
 -11 -1 0 0 0 0 0 0 -2.72908 2.72908 0 0. 9.
 15 1 1 2 0 0 -1.51925 -2.65108 1.92302 4.02394 1.7768 0. 1
 -15 1 1 2 0 0 1.51925 2.65108 0.18215 3.53939 1.7768 0. -1
</event>
<event>
 4 80 1 -1 -1 -1
 11 -1 0 0 0 0 0 0 4.99977 4.99977 0 0. 9.
 -11 -1 0 0 0 0 0 0 -4.99729 4.99729 0 0. 9.
 15 1 1 2 0 0 -4.072 -0.325498 2.26849 4.99909 1.7768 0. -1
 -15 1 1 2 0 0 4.072 0.325498 -2.26602 4.99797 1.7768 0. 1
</event>
<event>
 4 80 1 -1 -1 -1
 11 -1 0 0 0 0 0 0 5 5 0 0. 9.
 -11 -1 0 0 0 0 0 0 -5 5 0 0. 9.
 15 1 1 2 0 0 1.54114 -1.6092 -4.10824 5 1.7768 0. 1
 -15 1 1 2 0 0 -1.54114 1.6092 4.10824 5 1.7768 0. -1
</event>
<event>
 4 80 1 -1 -1 -1
 11 -1 0 0 0 0 0 0 5 5 0 0. 9.
 -11 -1 0 0 0 0 0 0 -5 5 0 0. 9.
 15 1 1 2 0 0 2.61334 3.6776 -1.21985 5 1.7768 0. 1
 -15 1 1 2 0 0 -2.61334 -3.6776 1.21985 5 1.7768 0. -1
</event>
<event>
 4 80 1 -1 -1 -1
 11 -1 0 0 0 0 0 0 5 5 0 0. 9.
 -11 -1 0 0 0 0 0 0 -2.88104 2.88104 0 0. 9.
 15 1 1 2 0 0 0.352521 -3.07108 -0.290888 3.57745 1.7768 0. -1
 -15 1 1 2 0 0 -0.352521 3.07108 2.40984 4.30359 1.7768 0. 1
</event>
<event>
 4 80 1 -1 -1 -1
 11 -1 0 0 0 0 0 0 4.99865 4.99865 0 0. 9.
 -11 -1 0 0 0 0 0 0 -3.3927 3.3927 0 0. 9.
 15 1 1 2 0 0 -3.3841 0.385384 -0.708381 3.90643 1.7768 0. 1
 -15 1 1 2 0 0 3.3841 -0.385384 2.31433 4.48492 1.7768 0. -1
</event>
<event>
 4 80 1 -1 -1 -1
 11 -1 0 0 0 0 0 0 5 5 0 0. 9.
 -11 -1 0 0 0 0 0 0 -5 5 0 0. 9.
 15 1 1 2 0 0 2.24048 3.71015 -1.74852 5 1.7768 0. -1
 -15 1 1 2 0 0 -2.24048 -3.71015 1.74852 5 1.7768 0. 1
</event>
<event>
 4 80 1 -1 -1 -1
 11 -1 0 0 0 0 0 0 3.11827 3.11827 0 0. 9.
 -11 -1 0 0 0 0 0 0 -4.99956 4.99956 0 0. 9.
 15 1 1 2 0 0 0.274319 -0.723043 -4.47701 4.87846 1.7768 0. -1
 -15 1 1 2 0 0 -0.274319 0.723043 2.59572 3.23937 1.7768 0. 1
</event>
<event>
 4 80 1 -1 -1 -1
 11 -1 0 0 0 0 0 0 5 5 0 0. 9.
 -11 -1 0 0 0 0 0 0 -5 5 0 0. 9.
 15 1 1 2 0 0 -0.878526 -2.51077 -3.84272 5 1.7768 0. -1
 -15 1 1 2 0 0 0.878526 2.51077 3.84272 5 1.7768 0. 1
</event>
<event>
 4 80 1 -1 -1 -1
 11 -1 0 0 0 0 0 0 4.9998 4.9998 0 0. 9.
 -11 -1 0 0 0 0 0 0 -5 5 0 0. 9.
 15 1 1 2 0 0 1.93888 3.48032 -2.44332 4.99995 1.7768 0. 1
 -15 1 1 2 0 0 -1.93888 -3.48032 2.44312 4.99985 1.7768 0. -1
</event>
<event>
 4 80 1 -1 -1 -1
 11 -1 0 0 0 0 0 0 5 5 0 0. 9.
 -11 -1 0 0 0 0 0 0 -5 5 0 0. 9.
 15 1 1 2 0 0 -1.80023 -4.15529 -1.15544 5 1.7768 0. -1
 -15 1 1 2 0 0 1.80023 4.15529 1.15544 5 1.7768 0. 1
</event>
<event>
 4 80 1 -1 -1 -1
 11 -1 0 0 0 0 0 0 4.77183 4.77183 0 0. 9.
 -11 -1 0 0 0 0 0 0 -4.64819 4.64819 0 0. 9.
 15 1 1 2 0 0 -0.517035 1.92893 3.9396 4.76091 1.7768 0. -1
 -15 1 1 2 0 0 0.517035 -1.92893 -3.81596 4.65912 1.7768 0. 1
</event>
<event>
 4 80 1 -1 -1 -1
 11 -1 0 0 0 0 0 0 4.99995 4.99995 0 0. 9.
 -11 -1 0 0 0 0 0 0 -5 5 0 0. 9.
 15 1 1 2 0 0 3.25561 -3.03122 -1.43346 4.99998 1.7768 0. -1
 -15 1 1 2 0 0 -3.25561 3.03122 1.43341 4.99997 1.7768 0. 1
</event>
<event>
 4 80 1 -1 -1 -1
 11 -1 0 0 0 0 0 0 1.0852 1.0852 0 0. 9.
 -11 -1 0 0 0 0 0 0 -4.61022 4.61022 0 0. 9.
 15 1 1 2 0 0 -0.897715 0.951803 -1.29738 2.55983 1.7768 0. -1
 -15 1 1 2 0 0 0.897715 -0.951803 -2.22765 3.13559 1.7768 0. 1
</event>
<event>
 4 80 1 -1 -1 -1
 11 -1 0 0 0 0 0 0 4.99334 4.99334 0 0. 9.
 -11 -1 0 0 0 0 0 0 -5 5 0 0. 9.
 15 1 1 2 0 0 -4.23426 0.914146 -1.74813 4.99783 1.7768 0. -1
 -15 1 1 2 0 0 4.23426 -0.914146 1.74147 4.9955 1.7768 0. 1
</event>
<event>
 4 80 1 -1 -1 -1
 11 -1 0 0 0 0 0 0 5 5 0 0. 9.
 -11 -1 0 0 0 0 0 0 -5 5 0 0. 9.
 15 1 1 2 0 0 4.65071 -0.446699 -0.116689 5 1.7768 0. -1
 -15 1 1 2 0 0 -4.65071 0.446699 0.11669 5 1.7768 0. 1
</event>
<event>
 4 80 1 -1 -1 -1
 11 -1 0 0 0 0 0 0 4.94799 4.94799 0 0. 9.
 -11 -1 0 0 0 0 0 0 -4.99648 4.99648 0 0. 9.
 15 1 1 2 0 0 0.557973 -3.42531 -3.10984 4.98728 1.7768 0. 1
 -15 1 1 2 0 0 -0.557973 3.42531 3.06136 4.95719 1.7768 0. -1
</event>
<event>
 4 80 1 -1 -1 -1
 11 -1 0 0 0 0 0 0 5 5 0 0. 9.
 -11 -1 0 0 0 0 0 0 -5 5 0 0. 9.
 15 1 1 2 0 0 -0.288639 -3.1196 -3.468 5 1.7768 0. 1
 -15 1 1 2 0 0 0.288639 3.1196 3.468 5 1.7768 0. -1
</event>
<event>
 4 80 1 -1 -1 -1
 11 -1 0 0 0 0 0 0 4.98515 4.98515 0 0. 9.
 -11 -1 0 0 0 0 0 0 -5 5 0 0. 9.
 15 1 1 2 0 0 0.242426 -2.13437 -4.14913 4.99873 1.7768 0. 1
 -15 1 1 2 0 0 -0.242426 2.13437 4.13428 4.98641 1.7768 0. -1
</event>
<event>
 4 80 1 -1 -1 -1
 11 -1 0 0 0 0 0 0 4.96791 4.96791 0 0. 9.
 -11 -1 0 0 0 0 0 0 -5 5 0 0. 9.
 15 1 1 2 0 0 -0.237997 3.9318 -2.49922 4.99195 1.7768 0. 1
 -15 1 1 2 0 0 0.237997 -3.9318 2.46713 4.97596 1.7768 0. -1
</event>
<event>
 4 80 1 -1 -1 -1
 11 -1 0 0 0 0 0 0 4.99919 4.99919 0 0. 9.
 -11 -1 0 0 0 0 0 0 -5 5 0 0. 9.
 15 1 1 2 0 0 3.68898 1.8616 2.18228 4.99942 1.7768 0. -1
 -15 1 1 2 0 0 -3.68898 -1.8616 -2.18309 4.99977 1.7768 0. 1
</event>
<event>
 4 80 1 -1 -1 -1
 11 -1 0 0 0 0 0 0 4.99336 4.99336 0 0. 9.
 -11 -1 0 0 0 0 0 0 -4.99127 4.99127 0 0. 9.
 15 1 1 2 0 0 0.0816935 -1.39551 4.45204 4.99325 1.7768 0. -1
 -15 1 1 2 0 0 -0.0816935 1.39551 -4.44995 4.99138 1.7768 0. 1
</event>
<event>
 4 80 1 -1 -1 -1
 11 -1 0 0 0 0 0 0 5 5 0 0. 9.
 -11 -1 0 0 0 0 0 0 -5 5 0 0. 9.
 15 1 1 2 0 0 -0.818075 -4.46159 1.1257 5 1.7768 0. -1
 -15 1 1 2 0 0 0.818075 4.46159 -1.1257 5 1.7768 0. 1
</event>
<event>
 4 80 1 -1 -1 -1
 11 -1 0 0 0 0 0 0 2.84827 2.84827 0 0. 9.
 -11 -1 0 0 0 0 0 0 -4.99777 4.99777 0 0. 9.
 15 1 1 2 0 0 0.628315 -3.10046 -2.15012 4.21762 1.7768 0. 1
 -15 1 1 2 0 0 -0.628315 3.10046 0.00062097 3.62841 1.7768 0. -1
</event>
<event>
 4 80 1 -1 -1 -1
 11 -1 0 0 0 0 0 0 5 5 0 0. 9.
 -11 -1 0 0 0 0 0 0 -4.53304 4.53304 0 0. 9.
 15 1 1 2 0 0 -4.0758 -0.806664 1.73349 4.84 1.7768 0. 1
 -15 1 1 2 0 0 4.0758 0.806664 -1.26653 4.69305 1.7768 0. -1
</event>
<event>
 4 80 1 -1 -1 -1
 11 -1 0 0 0 0 0 0 5 5 0 0. 9.
 -11 -1 0 0 0 0 0 0 -5 5 0 0. 9.
 15 1 1 2 0 0 2.0004 -3.90001 -1.6219 5 1.7768 0. 1
 -15 1 1 2 0 0 -2.0004 3.90001 1.6219 5 1.7768 0. -1
</event>
<event>
 4 80 1 -1 -1 -1
 11 -1 0 0 0 0 0 0 5 5 0 0. 9.
 -11 -1 0 0 0 0 0 0 -5 5 0 0. 9.
 15 1 1 2 0 0 2.48198 0.18815 3.95558 5 1.7768 0. -1
 -15 1 1 2 0 0 -2.48198 -0.18815 -3.95558 5 1.7768 0. 1
</event>
<event>
 4 80 1 -1 -1 -1
 11 -1 0 0 0 0 0 0 5 5 0 0. 9.
 -11 -1 0 0 0 0 0 0 -4.99999 4.99999 0 0. 9.
 15 1 1 2 0 0 -2.26151 1.08423 3.94364 5 1.7768 0. -1
 -15 1 1 2 0 0 2.26151 -1.08423 -3.94363 4.99999 1.7768 0. 1
</event>
<event>
 4 80 1 -1 -1 -1
 11 -1 0 0 0 0 0 0 4.98532 4.98532 0 0. 9.
 -11 -1 0 0 0 0 0 0 -5 5 0 0. 9.
 15 1 1 2 0 0 3.36951 1.86986 -2.63773 4.99653 1.7768 0. -1
 -15 1 1 2 0 0 -3.36951 -1.86986 2.62304 4.98879 1.7768 0. 1
</event>
<event>
 4 80 1 -1 -1 -1
 11 -1 0 0 0 0 0 0 5 5 0 0. 9.
 -11 -1 0 0 0 0 0 0 -4.99681 4.99681 0 0. 9.
 15 1 1 2 0 0 2.86451 3.21259 1.81823 4.99898 1.7768 0. -1
 -15 1 1 2 0 0 -2.86451 -3.21259 -1.81504 4.99782 1.7768 0. 1
</event>
<event>
 4 80 1 -1 -1 -1
 11 -1 0 0 0 0 0 0 5 5 0 0. 9.
 -11 -1 0 0 0 0 0 0 -5 5 0 0. 9.
 15 1 1 2 0 0 -2.64281 -2.86604 -2.57752 5 1.7768 0. 1
 -15 1 1 2 0 0 2.64281 2.86604 2.57752 5 1.7768 0. -1
</event>
<event>
 4 80 1 -1 -1 -1
 11 -1 0 0 0 0 0 0 5 5 0 0. 9.
 -11 -1 0 0 0 0 0 0 -4.93301 4.93301 0 0. 9.
 15 1 1 2 0 0 -2.63815 3.7777 -0.492336 4.96296 1.7768 0. 1
 -15 1 1 2 0 0 2.63815 -3.7777 0.559325 4.97005 1.7768 0. -1
</event>
<event>
 4 80 1 -1 -1 -1
 11 -1 0 0 0 0 0 0 5 5 0 0. 9.
 -11 -1 0 0 0 0 0 0 -4.99995 4.99995 0 0. 9.
 15 1 1 2 0 0 -3.75357 -2.70994 0.639479 4.99998 1.7768 0. -1
 -15 1 1 2 0 0 3.75357 2.70994 -0.639427 4.99997 1.7768 0. 1
</event>
<event>
 4 80 1 -1 -1 -1
 11 -1 0 0 0 0 0 0 4.98563 4.98563 0 0. 9.
 -11 -1 0 0 0 0 0 0 -4.99394 4.99394 0 0. 9.
 15 1 1 2 0 0 -1.28631 3.05564 3.27437 4.98706 1.7768 0. 1
 -15 1 1 2 0 0 1.28631 -3.05564 -3.28267 4.99251 1.7768 0. -1
</event>
<event>
 4 80 1 -1 -1 -1
 11 -1 0 0 0 0 0 0 5 5 0 0. 9.
 -11 -1 0 0 0 0 0 0 -4.5386 4.5386 0 0. 9.
 15 1 1 2 0 0 0.31028 -3.98917 -1.64915 4.67837 1.7768 0. -1
 -15 1 1 2 0 0 -0.31028 3.98917 2.11055 4.86023 1.7768 0. 1
</event>
<event>
 4 80 1 -1 -1 -1
 11 -1 0 0 0 0 0 0 5 5 0 0. 9.
 -11 -1 0 0 0 0 0 0 -4.99798 4.99798 0 0. 9.
 15 1 1 2 0 0 1.71273 3.28497 2.84841 4.99957 1.7768 0. 1
 -15 1 1 2 0 0 -1.71273 -3.28497 -2.84639 4.99842 1.7768 0. -1
</event>
<event>
 4 80 1 -1 -1 -1
 11 -1 0 0 0 0 0 0 5 5 0 0. 9.
 -11 -1 0 0 0 0 0 0 -5 5 0 0. 9.
 15 1 1 2 0 0 -2.40001 -3.98422 0.456302 5 1.7768 0. 1
 -15 1 1 2 0 0 2.40001 3.98422 -0.456302 5 1.7768 0. -1
</event>
<event>
 4 80 1 -1 -1 -1
 11 -1 0 0 0 0 0 0 5 5 0 0. 9.
 -11 -1 0 0 0 0 0 0 -5 5 0 0. 9.
 15 1 1 2 0 0 -0.267901 -2.31827 4.04921 5 1.7768 0. 1
 -15 1 1 2 0 0 0.267901 2.31827 -4.04921 5 1.7768 0. -1
</event>
<event>
 4 80 1 -1 -1 -1
 11 -1 0 0 0 0 0 0 4.44014 4.44014 0 0. 9.
 -11 -1 0 0 0 0 0 0 -5 5 0 0. 9.
 15 1 1 2 0 0 -4.11115 -0.637511 1.03961 4.64182 1.7768 0. -1
 -15 1 1 2 0 0 4.11115 0.637511 -1.59947 4.79833 1.7768 0. 1
</event>
<event>
 4 80 1 -1 -1 -1
 11 -1 0 0 0 0 0 0 5 5 0 0. 9.
 -11 -1 0 0 0 0 0 0 -5 5 0 0. 9.
 15 1 1 2 0 0 -0.861404 -4.29776 -1.62158 5 1.7768 0. 1
 -15 1 1 2 0 0 0.861404 4.29776 1.62159 5 1.7768 0. -1
</event>
<event>
 4 80 1 -1 -1 -1
 11 -1 0 0 0 0 0 0 4.44935 4.44935 0 0. 9.
 -11 -1 0 0 0 0 0 0 -4.99349 4.99349 0 0. 9.
 15 1 1 2 0 0 4.34063 -0.439243 -0.110228 4.7121 1.7768 0. -1
 -15 1 1 2 0 0 -4.34063 0.439243 -0.43391 4.73075 1.7768 0. 1
</event>
<event>
 4 80 1 -1 -1 -1
 11 -1 0 0 0 0 0 0 4.9968 4.9968 0 0. 9.
 -11 -1 0 0 0 0 0 0 -4.99968 4.99968 0 0. 9.
 15 1 1 2 0 0 -1.05125 4.49947 0.687257 4.99804 1.7768 0. 1
 -15 1 1 2 0 0 1.05125 -4.49947 -0.690138 4.99844 1.7768 0. -1
</event>
<event>
 4 80 1 -1 -1 -1
 11 -1 0 0 0 0 0 0 5 5 0 0. 9.
 -11 -1 0 0 0 0 0 0 -5 5 0 0. 9.
 15 1 1 2 0 0 -3.22263 -3.05783 -1.45141 5 1.7768 0. -1
 -15 1 1 2 0 0 3.22263 3.05783 1.45141 5 1.7768 0. 1
</event>
<event>
 4 80 1 -1 -1 -1
 11 -1 0 0 0 0 0 0 5 5 0 0. 9.
 -11 -1 0 0 0 0 0 0 -5 5 0 0. 9.
 15 1 1 2 0 0 0.905886 4.56458 0.431553 5 1.7768 0. -1
 -15 1 1 2 0 0 -0.905886 -4.56458 -0.431553 5 1.7768 0. 1
</event>
<event>
 4 80 1 -1 -1 -1
 11 -1 0 0 0 0 0 0 5 5 0 0. 9.
 -11 -1 0 0 0 0 0 0 -5 5 0 0. 9.
 15 1 1 2 0 0 2.13756 1.16104 3.99063 5 1.7768 0. -1
 -15 1 1 2 0 0 -2.13756 -1.16104 -3.99063 5 1.7768 0. 1
</event>
<event>
 4 80 1 -1 -1 -1
 11 -1 0 0 0 0 0 0 1.33252 1.33252 0 0. 9.
 -11 -1 0 0 0 0 0 0 -5 5 0 0. 9.
 15 1 1 2 0 0 0.295788 0.628535 0.298798 1.93121 1.7768 0. 1
 -15 1 1 2 0 0 -0.295788 -0.628535 -3.96627 4.40132 1.7768 0. -1
</event>
<event>
 4 80 1 -1 -1 -1
 11 -1 0 0 0 0 0 0 4.4481 4.4481 0 0. 9.
 -11 -1 0 0 0 0 0 0 -4.96526 4.96526 0 0. 9.
 15 1 1 2 0 0 -2.94333 -2.71231 -1.96657 4.80052 1.7768 0. -1
 -15 1 1 2 0 0 2.94333 2.71231 1.44941 4.61285 1.7768 0. 1
</event>
<event>
 4 80 1 -1 -1 -1
 11 -1 0 0 0 0 0 0 5 5 0 0. 9.
 -11 -1 0 0 0 0 0 0 -5 5 0 0. 9.
 15 1 1 2 0 0 -1.4944 1.24163 4.25058 5 1.7768 0. -1
 -15 1 1 2 0 0 1.4944 -1.24163 -4.25058 5 1.7768 0. 1
</event>
<event>
 4 80 1 -1 -1 -1
 11 -1 0 0 0 0 0 0 4.44398 4.44398 0 0. 9.
 -11 -1 0 0 0 0 0 0 -4.99908 4.99908 0 0. 9.
 15 1 1 2 0 0 -3.8527 2.05241 -0.326283 4.72439 1.7768 0. 1
 -15 1 1 2 0 0 3.8527 -2.05241 -0.228816 4.71866 1.7768 0. -1
</event>
<event>
 4 80 1 -1 -1 -1
 11 -1 0 0 0 0 0 0 1.24153 1.24153 0 0. 9.
 -11 -1 0 0 0 0 0 0 -5 5 0 0. 9.
 15 1 1 2 0 0 0.320928 0.557181 0.154577 1.89607 1.7768 0. -1
 -15 1 1 2 0 0 -0.320928 -0.557181 -3.91304 4.34547 1.7768 0. 1
</event>
<event>
 4 80 1 -1 -1 -1
 11 -1 0 0 0 0 0 0 5 5 0 0. 9.
 -11 -1 0 0 0 0 0 0 -4.98164 4.98164 0 0. 9.
 15 1 1 2 0 0 -1.66801 -1.53166 -4.06786 4.98332 1.7768 0. 1
 -15 1 1 2 0 0 1.66801 1.53166 4.08622 4.99832 1.7768 0. -1
</event>
<event>
 4 80 1 -1 -1 -1
 11 -1 0 0 0 0 0 0 5 5 0 0. 9.
 -11 -1 0 0 0 0 0 0 -5 5 0 0. 9.
 15 1 1 2 0 0 -1.17552 -2.18206 3.9622 5 1.7768 0. 1
 -15 1 1 2 0 0 1.17552 2.18206 -3.9622 5 1.7768 0. -1
</event>
<event>
 4 80 1 -1 -1 -1
 11 -1 0 0 0 0 0 0 5 5 0 0. 9.
 -11 -1 0 0 0 0 0 0 -5 5 0 0. 9.
 15 1 1 2 0 0 1.07489 -3.00789 -3.41167 5 1.7768 0. -1
 -15 1 1 2 0 0 -1.07489 3.00789 3.41167 5 1.7768 0. 1
</event>
<event>
 4 80 1 -1 -1 -1
 11 -1 0 0 0 0 0 0 5 5 0 0. 9.
 -11 -1 0 0 0 0 0 0 -4.99574 4.99574 0 0. 9.
 15 1 1 2 0 0 0.979977 -2.8599 3.56325 4.99939 1.7768 0. -1
 -15 1 1 2 0 0 -0.979977 2.8599 -3.55899 4.99635 1.7768 0. 1
</event>
<event>
 4 80 1 -1 -1 -1
 11 -1 0 0 0 0 0 0 4.99996 4.99996 0 0. 9.
 -11 -1 0 0 0 0 0 0 -4.99953 4.99953 0 0. 9.
 15 1 1 2 0 0 -0.279869 -0.589206 4.62777 4.99995 1.7768 0. -1
 -15 1 1 2 0 0 0.279869 0.589206 -4.62734 4.99955 1.7768 0. 1
</event>
<event>
 4 80 1 -1 -1 -1
 11 -1 0 0 0 0 0 0 5 5 0 0. 9.
 -11 -1 0 0 0 0 0 0 -4.97482 4.97482 0 0. 9.
 15 1 1 2 0 0 -1.48556 -2.8098 3.42061 4.99601 1.7768 0. -1
 -15 1 1 2 0 0 1.48556 2.8098 -3.39543 4.97881 1.7768 0. 1
</event>
<event>
 4 80 1 -1 -1 -1
 11 -1 0 0 0 0 0 0 5 5 0 0. 9.
 -11 -1 0 0 0 0 0 0 -4.58047 4.58047 0 0. 9.
 15 1 1 2 0 0 0.388967 0.0215882 4.6404 4.98425 1.7768 0. -1
 -15 1 1 2 0 0 -0.388967 -0.0215882 -4.22087 4.59622 1.7768 0. 1
</event>
<event>
 4 80 1 -1 -1 -1
 11 -1 0 0 0 0 0 0 5 5 0 0. 9.
 -11 -1 0 0 0 0 0 0 -5 5 0 0. 9.
 15 1 1 2 0 0 1.10727 -3.00783 -3.40134 5 1.7768 0. -1
 -15 1 1 2 0 0 -1.10727 3.00783 3.40135 5 1.7768 0. 1
</event>
<event>
 4 80 1 -1 -1 -1
 11 -1 0 0 0 0 0 0 5 5 0 0. 9.
 -11 -1 0 0 0 0 0 0 -5 5 0 0. 9.
 15 1 1 2 0 0 1.6166 3.23605 -2.9592 5 1.7768 0. -1
 -15 1 1 2 0 0 -1.6166 -3.23605 2.9592 5 1.7768 0. 1
</event>
<event>
 4 80 1 -1 -1 -1
 11 -1 0 0 0 0 0 0 2.36397 2.36397 0 0. 9.
 -11 -1 0 0 0 0 0 0 -5 5 0 0. 9.
 15 1 1 2 0 0 -2.43706 -1.07075 0.0266401 3.20065 1.7768 0. 1
 -15 1 1 2 0 0 2.43706 1.07075 -2.66267 4.16332 1.7768 0. -1
</event>
<event>
 4 80 1 -1 -1 -1
 11 -1 0 0 0 0 0 0 5 5 0 0. 9.
 -11 -1 0 0 0 0 0 0 -4.95078 4.95078 0 0. 9.
 15 1 1 2 0 0 4.47239 1.15552 -0.483975 4.97288 1.7768 0. 1
 -15 1 1 2 0 0 -4.47239 -1.15552 0.533192 4.97791 1.7768 0. -1
</event>
<event>
 4 80 1 -1 -1 -1
 11 -1 0 0 0 0 0 0 2.36691 2.36691 0 0. 9.
 -11 -1 0 0 0 0 0 0 -4.98478 4.98478 0 0. 9.
 15 1 1 2 0 0 0.563383 0.0316051 -4.39615 4.77517 1.7768 0. -1
 -15 1 1 2 0 0 -0.563383 -0.0316051 1.77829 2.57652 1.7768 0. 1
</event>
<event>
 4 80 1 -1 -1 -1
 11 -1 0 0 0 0 0 0 4.9961 4.9961 0 0. 9.
 -11 -1 0 0 0 0 0 0 -5 5 0 0. 9.
 15 1 1 2 0 0 1.81433 0.781933 4.2312 4.9964 1.7768 0. -1
 -15 1 1 2 0 0 -1.81433 -0.781933 -4.2351 4.9997 1.7768 0. 1
</event>
<event>
 4 80 1 -1 -1 -1
 11 -1 0 0 0 0 0 0 4.99505 4.99505 0 0. 9.
 -11 -1 0 0 0 0 0 0 -4.09856 4.09856 0 0. 9.
 15 1 1 2 0 0 -1.92716 -2.05007 3.52888 4.85051 1.7768 0. -1
 -15 1 1 2 0 0 1.92716 2.05007 -2.63239 4.24311 1.7768 0. 1
</event>
<event>
 4 80 1 -1 -1 -1
 11 -1 0 0 0 0 0 0 4.99538 4.99538 0 0. 9.
 -11 -1 0 0 0 0 0 0 -4.64429 4.64429 0 0. 9.
 15 1 1 2 0 0 1.20455 -3.05948 -2.86472 4.70911 1.7768 0. 1
 -15 1 1 2 0 0 -1.20455 3.05948 3.21581 4.93057 1.7768 0. -1
</event>
<event>
 4 80 1 -1 -1 -1
 11 -1 0 0 0 0 0 0 3.02851 3.02851 0 0. 9.
 -11 -1 0 0 0 0 0 0 -5 5 0 0. 9.
 15 1 1 2 0 0 0.452495 3.41427 -0.624199 3.92548 1.7768 0. 1
 -15 1 1 2 0 0 -0.452495 -3.41427 -1.34728 4.10304 1.7768 0. -1
</event>
<event>
 4 80 1 -1 -1 -1
 11 -1 0 0 0 0 0 0 4.96593 4.96593 0 0. 9.
 -11 -1 0 0 0 0 0 0 -5 5 0 0. 9.
 15 1 1 2 0 0 -3.09044 1.56998 -3.1245 4.99359 1.7768 0. 1
 -15 1 1 2 0 0 3.09044 -1.56998 3.09043 4.97234 1.7768 0. -1
</event>
<event>
 4 80 1 -1 -1 -1
 11 -1 0 0 0 0 0 0 5 5 0 0. 9.
 -11 -1 0 0 0 0 0 0 -4.9936 4.9936 0 0. 9.
 15 1 1 2 0 0 4.04276 -0.846581 2.18257 4.9982 1.7768 0. -1
 -15 1 1 2 0 0 -4.04276 0.846581 -2.17618 4.99541 1.7768 0. 1
</event>
<event>
 4 80 1 -1 -1 -1
 11 -1 0 0 0 0 0 0 4.99986 4.99986 0 0. 9.
 -11 -1 0 0 0 0 0 0 -4.96527 4.96527 0 0. 9.
 15 1 1 2 0 0 0.810273 -4.53412 0.690464 4.9849 1.7768 0. 1
 -15 1 1 2 0 0 -0.810273 4.53412 -0.655876 4.98023 1.7768 0. -1
</event>
<event>
 4 80 1 -1 -1 -1
 11 -1 0 0 0 0 0 0 5 5 0 0. 9.
 -11 -1 0 0 0 0 0 0 -4.99746 4.99746 0 0. 9.
 15 1 1 2 0 0 0.325398 2.67292 -3.817 4.99776 1.7768 0. -1
 -15 1 1 2 0 0 -0.325398 -2.67292 3.81954 4.9997 1.7768 0. 1
</event>
<event>
 4 80 1 -1 -1 -1
 11 -1 0 0 0 0 0 0 5 5 0 0. 9.
 -11 -1 0 0 0 0 0 0 -4.99999 4.99999 0 0. 9.
 15 1 1 2 0 0 3.45233 3.14233 0.222162 4.99999 1.7768 0. -1
 -15 1 1 2 0 0 -3.45233 -3.14233 -0.222152 4.99999 1.7768 0. 1
</event>
<event>
 4 80 1 -1 -1 -1
 11 -1 0 0 0 0 0 0 4.20151 4.20151 0 0. 9.
 -11 -1 0 0 0 0 0 0 -4.99931 4.99931 0 0. 9.
 15 1 1 2 0 0 -3.01947 -0.86844 2.43587 4.35461 1.7768 0. -1
 -15 1 1 2 0 0 3.01947 0.86844 -3.23367 4.84621 1.7768 0. 1
</event>
<event>
 4 80 1 -1 -1 -1
 11 -1 0 0 0 0 0 0 3.65704 3.65704 0 0. 9.
 -11 -1 0 0 0 0 0 0 -5 5 0 0. 9.
 15 1 1 2 0 0 -2.24766 -1.56447 2.12424 3.89482 1.7768 0. -1
 -15 1 1 2 0 0 2.24766 1.56447 -3.4672 4.76222 1.7768 0. 1
</event>
<event>
 4 80 1 -1 -1 -1
 11 -1 0 0 0 0 0 0 5 5 0 0. 9.
 -11 -1 0 0 0 0 0 0 -5 5 0 0. 9.
 15 1 1 2 0 0 -3.41214 -0.990495 3.03619 5 1.7768 0. -1
 -15 1 1 2 0 0 3.41214 0.990495 -3.03619 5 1.7768 0. 1
</event>
<event>
 4 80 1 -1 -1 -1
 11 -1 0 0 0 0 0 0 5 5 0 0. 9.
 -11 -1 0 0 0 0 0 0 -5 5 0 0. 9.
 15 1 1 2 0 0 3.58183 -3.00022 0.107066 5 1.7768 0. 1
 -15 1 1 2 0 0 -3.58183 3.00022 -0.107066 5 1.7768 0. -1
</event>
<event>
 4 80 1 -1 -1 -1
 11 -1 0 0 0 0 0 0 4.99999 4.99999 0 0. 9.
 -11 -1 0 0 0 0 0 0 -5 5 0 0. 9.
 15 1 1 2 0 0 1.67366 -0.606381 4.32127 4.99999 1.7768 0. -1
 -15 1 1 2 0 0 -1.67366 0.606381 -4.32128 5 1.7768 0. 1
</event>
<event>
 4 80 1 -1 -1 -1
 11 -1 0 0 0 0 0 0 4.97406 4.97406 0 0. 9.
 -11 -1 0 0 0 0 0 0 -5 5 0 0. 9.
 15 1 1 2 0 0 -2.38905 3.78276 -1.3152 4.99042 1.7768 0. -1
 -15 1 1 2 0 0 2.38905 -3.78276 1.28926 4.98364 1.7768 0. 1
</event>
<event>
 4 80 1 -1 -1 -1
 11 -1 0 0 0 0 0 0 5 5 0 0. 9.
 -11 -1 0 0 0 0 0 0 -5 5 0 0. 9.
 15 1 1 2 0 0 0.764417 4.61027 -0.0578952 5 1.7768 0. -1
 -15 1 1 2 0 0 -0.764417 -4.61027 0.0578951 5 1.7768 0. 1
</event>
<event>
 4 80 1 -1 -1 -1
 11 -1 0 0 0 0 0 0 5 5 0 0. 9.
 -11 -1 0 0 0 0 0 0 -5 5 0 0. 9.
 15 1 1 2 0 0 -1.19156 -2.70828 3.61769 5 1.7768 0. -1
 -15 1 1 2 0 0 1.19156 2.70828 -3.61769 5 1.7768 0. 1
</event>
<event>
 4 80 1 -1 -1 -1
 11 -1 0 0 0 0 0 0 4.99557 4.99557 0 0. 9.
 -11 -1 0 0 0 0 0 0 -5 5 0 0. 9.
 15 1 1 2 0 0 -2.78447 0.495209 -3.71996 4.99943 1.7768 0. 1
 -15 1 1 2 0 0 2.78447 -0.495209 3.71553 4.99614 1.7768 0. -1
</event>
<event>
 4 80 1 -1 -1 -1
 11 -1 0 0 0 0 0 0 4.99439 4.99439 0 0. 9.
 -11 -1 0 0 0 0 0 0 -5 5 0 0. 9.
 15 1 1 2 0 0 -1.13648 -2.40504 -3.84187 4.99935 1.7768 0. -1
 -15 1 1 2 0 0 1.13648 2.40504 3.83626 4.99504 1.7768 0. 1
</event>
<event>
 4 80 1 -1 -1 -1
 11 -1 0 0 0 0 0 0 5 5 0 0. 9.
 -11 -1 0 0 0 0 0 0 -5 5 0 0. 9.
 15 1 1 2 0 0 -1.94335 0.886288 -4.15694 5 1.7768 0. 1
 -15 1 1 2 0 0 1.94335 -0.886288 4.15694 5 1.7768 0. -1
</event>
<event>
 4 80 1 -1 -1 -1
 11 -1 0 0 0 0 0 0 5 5 0 0. 9.
 -11 -1 0 0 0 0 0 0 -4.94724 4.94724 0 0. 9.
 15 1 1 2 0 0 -0.456582 4.09214 -2.12409 4.96221 1.7768 0. 1
 -15 1 1 2 0 0 0.456582 -4.09214 2.17685 4.98503 1.7768 0. -1
</event>
<event>
 4 80 1 -1 -1 -1
 11 -1 0 0 0 0 0 0 5 5 0 0. 9.
 -11 -1 0 0 0 0 0 0 -5 5 0 0. 9.
 15 1 1 2 0 0 -0.680222 3.57138 -2.9368 5 1.7768 0. -1
 -15 1 1 2 0 0 0.680222 -3.57138 2.9368 5 1.7768 0. 1
</event>
<event>
 4 80 1 -1 -1 -1
 11 -1 0 0 0 0 0 0 4.65984 4.65984 0 0. 9.
 -11 -1 0 0 0 0 0 0 -5 5 0 0. 9.
 15 1 1 2 0 0 0.0922217 -0.907414 4.22692 4.67509 1.7768 0. -1
 -15 1 1 2 0 0 -0.0922217 0.907414 -4.56707 4.98476 1.7768 0. 1
</event>
<event>
 4 80 1 -1 -1 -1
 11 -1 0 0 0 0 0 0 5 5 0 0. 9.
 -11 -1 0 0 0 0 0 0 -5 5 0 0. 9.
 15 1 1 2 0 0 -4.34672 1.69418 0.279403 5 1.7768 0. 1
 -15 1 1 2 0 0 4.34672 -1.69418 -0.279403 5 1.7768 0. -1
</event>
<event>
 4 80 1 -1 -1 -1
 11 -1 0 0 0 0 0 0 5 5 0 0. 9.
 -11 -1 0 0 0 0 0 0 -5 5 0 0. 9.
 15 1 1 2 0 0 0.901328 -4.41811 -1.22888 5 1.7768 0. -1
 -15 1 1 2 0 0 -0.901328 4.41811 1.22888 5 1.7768 0. 1
</event>
<event>
 4 80 1 -1 -1 -1
 11 -1 0 0 0 0 0 0 5 5 0 0. 9.
 -11 -1 0 0 0 0 0 0 -5 5 0 0. 9.
 15 1 1 2 0 0 2.32932 3.81995 1.35075 5 1.7768 0. 1
 -15 1 1 2 0 0 -2.32932 -3.81995 -1.35075 5 1.7768 0. -1
</event>
<event>
 4 80 1 -1 -1 -1
 11 -1 0 0 0 0 0 0 2.07298 2.07298 0 0. 9.
 -11 -1 0 0 0 0 0 0 -3.64591 3.64591 0 0. 9.
 15 1 1 2 0 0 0.242936 1.75674 -1.95167 3.17992 1.7768 0. -1
 -15 1 1 2 0 0 -0.242936 -1.75674 0.378744 2.53896 1.7768 0. 1
</event>
<event>
 4 80 1 -1 -1 -1
 11 -1 0 0 0 0 0 0 5 5 0 0. 9.
 -11 -1 0 0 0 0 0 0 -4.96241 4.96241 0 0. 9.
 15 1 1 2 0 0 -4.57352 0.373936 0.791735 4.98412 1.7768 0. 1
 -15 1 1 2 0 0 4.57352 -0.373936 -0.754145 4.97829 1.7768 0. -1
</event>
<event>
 4 80 1 -1 -1 -1
 11 -1 0 0 0 0 0 0 5 5 0 0. 9.
 -11 -1 0 0 0 0 0 0 -5 5 0 0. 9.
 15 1 1 2 0 0 -1.50251 3.18854 3.06887 5 1.7768 0. 1
 -15 1 1 2 0 0 1.50251 -3.18854 -3.06887 5 1.7768 0. -1
</event>
<event>
 4 80 1 -1 -1 -1
 11 -1 0 0 0 0 0 0 5 5 0 0. 9.
 -11 -1 0 0 0 0 0 0 -5 5 0 0. 9.
 15 1 1 2 0 0 1.68307 3.81937 -2.10285 5 1.7768 0. -1
 -15 1 1 2 0 0 -1.68307 -3.81937 2.10285 5 1.7768 0. 1
</event>
<event>
 4 80 1 -1 -1 -1
 11 -1 0 0 0 0 0 0 4.99997 4.99997 0 0. 9.
 -11 -1 0 0 0 0 0 0 -5 5 0 0. 9.
 15 1 1 2 0 0 2.32253 3.57071 -1.92302 4.99999 1.7768 0. 1
 -15 1 1 2 0 0 -2.32253 -3.57071 1.92299 4.99998 1.7768 0. -1
</event>
<event>
 4 80 1 -1 -1 -1
 11 -1 0 0 0 0 0 0 4.99997 4.99997 0 0. 9.
 -11 -1 0 0 0 0 0 0 -4.99957 4.99957 0 0. 9.
 15 1 1 2 0 0 1.20797 -0.537005 -4.48225 4.99959 1.7768 0. -1
 -15 1 1 2 0 0 -1.20797 0.537005 4.48266 4.99995 1.7768 0. 1
</event>
<event>
 4 80 1 -1 -1 -1
 11 -1 0 0 0 0 0 0 5 5 0 0. 9.
 -11 -1 0 0 0 0 0 0 -4.97371 4.97371 0 0. 9.
 15 1 1 2 0 0 -2.60345 -3.56816 1.49675 4.99077 1.7768 0. -1
 -15 1 1 2 0 0 2.60345 3.56816 -1.47046 4.98294 1.7768 0. 1
</event>
<event>
 4 80 1 -1 -1 -1
 11 -1 0 0 0 0 0 0 3.72471 3.72471 0 0. 9.
 -11 -1 0 0 0 0 0 0 -5 5 0 0. 9.
 15 1 1 2 0 0 -2.6094 2.93186 -0.387842 4.32584 1.7768 0. -1
 -15 1 1 2 0 0 2.6094 -2.93186 -0.887448 4.39887 1.7768 0. 1
</event>
<event>
 4 80 1 -1 -1 -1
 11 -1 0 0 0 0 0 0 4.938 4.938 0 0. 9.
 -11 -1 0 0 0 0 0 0 -5 5 0 0. 9.
 15 1 1 2 0 0 1.63601 -3.49109 2.5513 4.95289 1.7768 0. 1
 -15 1 1 2 0 0 -1.63601 3.49109 -2.6133 4.98511 1.7768 0. -1
</event>
<event>
 4 80 1 -1 -1 -1
 11 -1 0 0 0 0 0 0 5 5 0 0. 9.
 -11 -1 0 0 0 0 0 0 -4.96778 4.96778 0 0. 9.
 15 1 1 2 0 0 3.49251 2.7776 -1.31374 4.97959 1.7768 0. 1
 -15 1 1 2 0 0 -3.49251 -2.7776 1.34596 4.98819 1.7768 0. -1
</event>
<event>
 4 80 1 -1 -1 -1
 11 -1 0 0 0 0 0 0 4.92144 4.92144 0 0. 9.
 -11 -1 0 0 0 0 0 0 -5 5 0 0. 9.
 15 1 1 2 0 0 -2.44874 -0.484628 3.8619 4.92983 1.7768 0. -1
 -15 1 1 2 0 0 2.44874 0.484628 -3.94046 4.99161 1.7768 0. 1
</event>
<event>
 4 80 1 -1 -1 -1
 11 -1 0 0 0 0 0 0 5 5 0 0. 9.
 -11 -1 0 0 0 0 0 0 -1.05778 1.05778 0 0. 9.
 15 1 1 2 0 0 -0.13474 -1.43085 2.30869 3.24858 1.7768 0. 1
 -15 1 1 2 0 0 0.13474 1.43085 1.63352 2.8092 1.7768 0. -1
</event>
<event>
 4 80 1 -1 -1 -1
 11 -1 0 0 0 0 0 0 4.9696 4.9696 0 0. 9.
 -11 -1 0 0 0 0 0 0 -3.38747 3.38747 0 0. 9.
 15 1 1 2 0 0 -3.69073 0.0582177 0.559405 4.13468 1.7768 0. 1
 -15 1 1 2 0 0 3.69073 -0.0582177 1.02273 4.22239 1.7768 0. -1
</event>
<event>
 4 80 1 -1 -1 -1
 11 -1 0 0 0 0 0 0 4.74127 4.74127 0 0. 9.
 -11 -1 0 0 0 0 0 0 -4.98575 4.98575 0 0. 9.
 15 1 1 2 0 0 2.77164 3.30842 -1.48408 4.89774 1.7768 0. -1
 -15 1 1 2 0 0 -2.77164 -3.30842 1.2396 4.82928 1.7768 0. 1
</event>
<event>
 4 80 1 -1 -1 -1
 11 -1 0 0 0 0 0 0 5 5 0 0. 9.
 -11 -1 0 0 0 0 0 0 -5 5 0 0. 9.
 15 1 1 2 0 0 -1.94181 -0.0511245 4.25077 5 1.7768 0. 1
 -15 1 1 2 0 0 1.94181 0.0511245 -4.25077 5 1.7768 0. -1
</event>
<event>
 4 80 1 -1 -1 -1
 11 -1 0 0 0 0 0 0 4.99959 4.99959 0 0. 9.
 -11 -1 0 0 0 0 0 0 -4.99873 4.99873 0 0. 9.
 15 1 1 2 0 0 4.07743 -2.20137 -0.601579 4.99911 1.7768 0. -1
 -15 1 1 2 0 0 -4.07743 2.20137 0.602442 4.99921 1.7768 0. 1
</event>
<event>
 4 80 1 -1 -1 -1
 11 -1 0 0 0 0 0 0 5 5 0 0. 9.
 -11 -1 0 0 0 0 0 0 -5 5 0 0. 9.
 15 1 1 2 0 0 -1.31764 -1.42025 4.25312 5 1.7768 0. 1
 -15 1 1 2 0 0 1.31764 1.42025 -4.25312 5 1.7768 0. -1
</event>
<event>
 4 80 1 -1 -1 -1
 11 -1 0 0 0 0 0 0 5 5 0 0. 9.
 -11 -1 0 0 0 0 0 0 -5 5 0 0. 9.
 15 1 1 2 0 0 -1.20224 0.739947 -4.45526 5 1.7768 0. 1
 -15 1 1 2 0 0 1.20224 -0.739947 4.45526 5 1.7768 0. -1
</event>
<event>
 4 80 1 -1 -1 -1
 11 -1 0 0 0 0 0 0 5 5 0 0. 9.
 -11 -1 0 0 0 0 0 0 -4.99995 4.99995 0 0. 9.
 15 1 1 2 0 0 -1.32687 1.21597 -4.31308 4.99995 1.7768 0. -1
 -15 1 1 2 0 0 1.32687 -1.21597 4.31313 5 1.7768 0. 1
</event>
<event>
 4 80 1 -1 -1 -1
 11 -1 0 0 0 0 0 0 3.36702 3.36702 0 0. 9.
 -11 -1 0 0 0 0 0 0 -5 5 0 0. 9.
 15 1 1 2 0 0 2.54115 2.54807 0.0530172 4.01381 1.7768 0. 1
 -15 1 1 2 0 0 -2.54115 -2.54807 -1.686 4.35321 1.7768 0. -1
</event>
<event>
 4 80 1 -1 -1 -1
 11 -1 0 0 0 0 0 0 4.99998 4.99998 0 0. 9.
 -11 -1 0 0 0 0 0 0 -4.37153 4.37153 0 0. 9.
 15 1 1 2 0 0 -0.169144 -4.29384 -0.170736 4.65323 1.7768 0. -1
 -15 1 1 2 0 0 0.169144 4.29384 0.799192 4.71828 1.7768 0. 1
</event>
<event>
 4 80 1 -1 -1 -1
 11 -1 0 0 0 0 0 0 5 5 0 0. 9.
 -11 -1 0 0 0 0 0 0 -5 5 0 0. 9.
 15 1 1 2 0 0 1.55826 4.406 -0.0360835 5 1.7768 0. 1
 -15 1 1 2 0 0 -1.55826 -4.406 0.0360835 5 1.7768 0. -1
</event>
<event>
 4 80 1 -1 -1 -1
 11 -1 0 0 0 0 0 0 4.97225 4.97225 0 0. 9.
 -11 -1 0 0 0 0 0 0 -5 5 0 0. 9.
 15 1 1 2 0 0 -1.6389 -4.3411 0.40126 4.98497 1.7768 0. 1
 -15 1 1 2 0 0 1.6389 4.3411 -0.42901 4.98728 1.7768 0. -1
</event>
<event>
 4 80 1 -1 -1 -1
 11 -1 0 0 0 0 0 0 5 5 0 0. 9.
 -11 -1 0 0 0 0 0 0 -4.93438 4.93438 0 0. 9.
 15 1 1 2 0 0 2.31713 2.64118 3.06095 4.98719 1.7768 0. 1
 -15 1 1 2 0 0 -2.31713 -2.64118 -2.99533 4.94719 1.7768 0. -1
</event>
<event>
 4 80 1 -1 -1 -1
 11 -1 0 0 0 0 0 0 5 5 0 0. 9.
 -11 -1 0 0 0 0 0 0 -4.99989 4.99989 0 0. 9.
 15 1 1 2 0 0 -1.46811 3.10011 -3.17416 4.99991 1.7768 0. -1
 -15 1 1 2 0 0 1.46811 -3.10011 3.17428 4.99998 1.7768 0. 1
</event>
<event>
 4 80 1 -1 -1 -1
 11 -1 0 0 0 0 0 0 5 5 0 0. 9.
 -11 -1 0 0 0 0 0 0 -5 5 0 0. 9.
 15 1 1 2 0 0 -1.12519 -2.71282 3.6355 5 1.7768 0. -1
 -15 1 1 2 0 0 1.12519 2.71282 -3.6355 5 1.7768 0. 1
</event>
<event>
 4 80 1 -1 -1 -1
 11 -1 0 0 0 0 0 0 5 5 0 0. 9.
 -11 -1 0 0 0 0 0 0 -5 5 0 0. 9.
 15 1 1 2 0 0 -1.71838 -3.44464 -2.65027 5 1.7768 0. -1
 -15 1 1 2 0 0 1.71838 3.44464 2.65027 5 1.7768 0. 1
</event>
<event>
 4 80 1 -1 -1 -1
 11 -1 0 0 0 0 0 0 5 5 0 0. 9.
 -11 -1 0 0 0 0 0 0 -4.98702 4.98702 0 0. 9.
 15 1 1 2 0 0 2.10368 1.84964 3.73889 4.99836 1.7768 0. 1
 -15 1 1 2 0 0 -2.10368 -1.84964 -3.72591 4.98866 1.7768 0. -1
</event>
<event>
 4 80 1 -1 -1 -1
 11 -1 0 0 0 0 0 0 4.62849 4.62849 0 0. 9.
 -11 -1 0 0 0 0 0 0 -4.90358 4.90358 0 0. 9.
 15 1 1 2 0 0 1.32202 -0.461313 4.0568 4.64499 1.7768 0. -1
 -15 1 1 2 0 0 -1.32202 0.461313 -4.3319 4.88708 1.7768 0. 1
</event>
<event>
 4 80 1 -1 -1 -1
 11 -1 0 0 0 0 0 0 5 5 0 0. 9.
 -11 -1 0 0 0 0 0 0 -5 5 0 0. 9.
 15 1 1 2 0 0 -4.05131 2.32744 -0.110393 5 1.7768 0. -1
 -15 1 1 2 0 0 4.05131 -2.32744 0.110393 5 1.7768 0. 1
</event>
<event>
 4 80 1 -1 -1 -1
 11 -1 0 0 0 0 0 0 5 5 0 0. 9.
 -11 -1 0 0 0 0 0 0 -4.91511 4.91511 0 0. 9.
 15 1 1 2 0 0 -2.71796 -2.69039 -2.56386 4.93524 1.7768 0. -1
 -15 1 1 2 0 0 2.71796 2.69039 2.64875 4.97987 1.7768 0. 1
</event>
<event>
 4 80 1 -1 -1 -1
 11 -1 0 0 0 0 0 0 5 5 0 0. 9.
 -11 -1 0 0 0 0 0 0 -5 5 0 0. 9.
 15 1 1 2 0 0 -0.789773 -1.6724 4.29204 5 1.7768 0. -1
 -15 1 1 2 0 0 0.789773 1.6724 -4.29204 5 1.7768 0. 1
</event>
<event>
 4 80 1 -1 -1 -1
 11 -1 0 0 0 0 0 0 4.9999 4.9999 0 0. 9.
 -11 -1 0 0 0 0 0 0 -5 5 0 0. 9.
 15 1 1 2 0 0 -2.27513 3.58767 -1.94792 4.99997 1.7768 0. -1
 -15 1 1 2 0 0 2.27513 -3.58767 1.94782 4.99993 1.7768 0. 1
</event>
<event>
 4 80 1 -1 -1 -1
 11 -1 0 0 0 0 0 0 5 5 0 0. 9.
 -11 -1 0 0 0 0 0 0 -5 5 0 0. 9.
 15 1 1 2 0 0 -1.32837 -2.37033 -3.80253 5 1.7768 0. -1
 -15 1 1 2 0 0 1.32837 2.37033 3.80253 5 1.7768 0. 1
</event>
<event>
 4 80 1 -1 -1 -1
 11 -1 0 0 0 0 0 0 4.79909 4.79909 0 0. 9.
 -11 -1 0 0 0 0 0 0 -5 5 0 0. 9.
 15 1 1 2 0 0 2.21141 2.29859 3.16579 4.83258 1.7768 0. -1
 -15 1 1 2 0 0 -2.21141 -2.29859 -3.3667 4.96651 1.7768 0. 1
</event>
<event>
 4 80 1 -1 -1 -1
 11 -1 0 0 0 0 0 0 5 5 0 0. 9.
 -11 -1 0 0 0 0 0 0 -4.99996 4.99996 0 0. 9.
 15 1 1 2 0 0 -2.1743 -0.361466 4.12116 4.99999 1.7768 0. 1
 -15 1 1 2 0 0 2.1743 0.361466 -4.12113 4.99997 1.7768 0. -1
</event>
<event>
 4 80 1 -1 -1 -1
 11 -1 0 0 0 0 0 0 5 5 0 0. 9.
 -11 -1 0 0 0 0 0 0 -5 5 0 0. 9.
 15 1 1 2 0 0 4.62937 0.485649 0.418777 5 1.7768 0. 1
 -15 1 1 2 0 0 -4.62937 -0.485649 -0.418777 5 1.7768 0. -1
</event>
<event>
 4 80 1 -1 -1 -1
 11 -1 0 0 0 0 0 0 5 5 0 0. 9.
 -11 -1 0 0 0 0 0 0 -4.97624 4.97624 0 0. 9.
 15 1 1 2 0 0 -0.886199 -3.42221 -3.02567 4.98089 1.7768 0. -1
 -15 1 1 2 0 0 0.886199 3.42221 3.04943 4.99536 1.7768 0. 1
</event>
<event>
 4 80 1 -1 -1 -1
 11 -1 0 0 0 0 0 0 4.19754 4.19754 0 0. 9.
 -11 -1 0 0 0 0 0 0 -4.99983 4.99983 0 0. 9.
 15 1 1 2 0 0 -0.918101 1.68441 -4.17706 4.92806 1.7768 0. -1
 -15 1 1 2 0 0 0.918101 -1.68441 3.37478 4.26931 1.7768 0. 1
</event>
<event>
 4 80 1 -1 -1 -1
 11 -1 0 0 0 0 0 0 5 5 0 0. 9.
 -11 -1 0 0 0 0 0 0 -4.956 4.956 0 0. 9.
 15 1 1 2 0 0 -2.56687 -1.01354 3.76452 4.99454 1.7768 0. -1
 -15 1 1 2 0 0 2.56687 1.01354 -3.72052 4.96146 1.7768 0. 1
</event>
<event>
 4 80 1 -1 -1 -1
 11 -1 0 0 0 0 0 0 5 5 0 0. 9.
 -11 -1 0 0 0 0 0 0 -4.98944 4.98944 0 0. 9.
 15 1 1 2 0 0 -0.75865 2.027 4.14113 4.99909 1.7768 0. 1
 -15 1 1 2 0 0 0.75865 -2.027 -4.13057 4.99035 1.7768 0. -1
</event>
<event>
 4 80 1 -1 -1 -1
 11 -1 0 0 0 0 0 0 4.83503 4.83503 0 0. 9.
 -11 -1 0 0 0 0 0 0 -5 5 0 0. 9.
 15 1 1 2 0 0 0.454434 1.32236 4.28417 4.84427 1.7768 0. -1
 -15 1 1 2 0 0 -0.454434 -1.32236 -4.44914 4.99076 1.7768 0. 1
</event>
<event>
 4 80 1 -1 -1 -1
 11 -1 0 0 0 0 0 0 4.17709 4.17709 0 0. 9.
 -11 -1 0 0 0 0 0 0 -5 5 0 0. 9.
 15 1 1 2 0 0 1.24085 -2.19986 -3.79386 4.89184 1.7768 0. 1
 -15 1 1 2 0 0 -1.24085 2.19986 2.97094 4.28524 1.7768 0. -1
</event>
<event>
 4 80 1 -1 -1 -1
 11 -1 0 0 0 0 0 0 5 5 0 0. 9.
 -11 -1 0 0 0 0 0 0 -0.872642 0.872642 0 0. 9.
 15 1 1 2 0 0 1.08435 -0.0403731 1.82833 2.77092 1.7768 0. 1
 -15 1 1 2 0 0 -1.08435 0.0403731 2.29902 3.10172 1.7768 0. -1
</event>
<event>
 4 80 1 -1 -1 -1
 11 -1 0 0 0 0 0 0 4.95945 4.95945 0 0. 9.
 -11 -1 0 0 0 0 0 0 -4.93984 4.93984 0 0. 9.
 15 1 1 2 0 0 1.86767 3.95169 -1.48589 4.94668 1.7768 0. -1
 -15 1 1 2 0 0 -1.86767 -3.95169 1.5055 4.95261 1.7768 0. 1
</event>
<event>
 4 80 1 -1 -1 -1
 11 -1 0 0 0 0 0 0 5 5 0 0. 9.
 -11 -1 0 0 0 0 0 0 -2.27651 2.27651 0 0. 9.
 15 1 1 2 0 0 -1.71296 -2.29655 1.22351 3.58652 1.7768 0. -1
 -15 1 1 2 0 0 1.71296 2.29655 1.49998 3.68999 1.7768 0. 1
</event>
<event>
 4 80 1 -1 -1 -1
 11 -1 0 0 0 0 0 0 4.99958 4.99958 0 0. 9.
 -11 -1 0 0 0 0 0 0 -5 5 0 0. 9.
 15 1 1 2 0 0 -3.14961 -1.01808 -3.29924 4.99993 1.7768 0. -1
 -15 1 1 2 0 0 3.14961 1.01808 3.29882 4.99965 1.7768 0. 1
</event>
<event>
 4 80 1 -1 -1 -1
 11 -1 0 0 0 0 0 0 5 5 0 0. 9.
 -11 -1 0 0 0 0 0 0 -5 5 0 0. 9.
 15 1 1 2 0 0 4.3585 0.35418 1.64933 5 1.7768 0. -1
 -15 1 1 2 0 0 -4.3585 -0.35418 -1.64933 5 1.7768 0. 1
</event>
<event>
 4 80 1 -1 -1 -1
 11 -1 0 0 0 0 0 0 4.9947 4.9947 0 0. 9.
 -11 -1 0 0 0 0 0 0 -4.99899 4.99899 0 0. 9.
 15 1 1 2 0 0 3.00186 1.66465 -3.16892 4.9982 1.7768 0. 1
 -15 1 1 2 0 0 -3.00186 -1.66465 3.16463 4.99548 1.7768 0. -1
</event>
<event>
 4 80 1 -1 -1 -1
 11 -1 0 0 0 0 0 0 5 5 0 0. 9.
 -11 -1 0 0 0 0 0 0 -2.26899 2.26899 0 0. 9.
 15 1 1 2 0 0 -0.52851 1.32459 -1.31119 2.62884 1.7768 0. -1
 -15 1 1 2 0 0 0.52851 -1.32459 4.0422 4.64015 1.7768 0. 1
</event>
<event>
 4 80 1 -1 -1 -1
 11 -1 0 0 0 0 0 0 4.62441 4.62441 0 0. 9.
 -11 -1 0 0 0 0 0 0 -5 5 0 0. 9.
 15 1 1 2 0 0 -1.5835 -1.73978 -3.98937 4.96056 1.7768 0. 1
 -15 1 1 2 0 0 1.5835 1.73978 3.61378 4.66385 1.7768 0. -1
</event>
<event>
 4 80 1 -1 -1 -1
 11 -1 0 0 0 0 0 0 4.9031 4.9031 0 0. 9.
 -11 -1 0 0 0 0 0 0 -4.82148 4.82148 0 0. 9.
 15 1 1 2 0 0 2.01989 -2.37618 3.3206 4.88982 1.7768 0. -1
 -15 1 1 2 0 0 -2.01989 2.37618 -3.23899 4.83476 1.7768 0. 1
</event>
<event>
 4 80 1 -1 -1 -1
 11 -1 0 0 0 0 0 0 4.91011 4.91011 0 0. 9.
 -11 -1 0 0 0 0 0 0 -5 5 0 0. 9.
 15 1 1 2 0 0 0.27623 -1.95837 -4.22618 4.99298 1.7768 0. -1
 -15 1 1 2 0 0 -0.27623 1.95837 4.13629 4.91713 1.7768 0. 1
</event>
<event>
 4 80 1 -1 -1 -1
 11 -1 0 0 0 0 0 0 5 5 0 0. 9.
 -11 -1 0 0 0 0 0 0 -4.99906 4.99906 0 0. 9.
 15 1 1 2 0 0 -3.35483 0.723918 3.17201 4.99983 1.7768 0. -1
 -15 1 1 2 0 0 3.35483 -0.723918 -3.17107 4.99923 1.7768 0. 1
</event>
<event>
 4 80 1 -1 -1 -1
 11 -1 0 0 0 0 0 0 5 5 0 0. 9.
 -11 -1 0 0 0 0 0 0 -5 5 0 0. 9.
 15 1 1 2 0 0 0.524954 -3.4412 3.11847 5 1.7768 0. 1
 -15 1 1 2 0 0 -0.524954 3.4412 -3.11846 5 1.7768 0. -1
</event>
<event>
 4 80 1 -1 -1 -1
 11 -1 0 0 0 0 0 0 4.99998 4.99998 0 0. 9.
 -11 -1 0 0 0 0 0 0 -5 5 0 0. 9.
 15 1 1 2 0 0 -2.22648 3.51825 2.12294 4.99999 1.7768 0. -1
 -15 1 1 2 0 0 2.22648 -3.51825 -2.12296 5 1.7768 0. 1
</event>
<event>
 4 80 1 -1 -1 -1
 11 -1 0 0 0 0 0 0 4.99868 4.99868 0 0. 9.
 -11 -1 0 0 0 0 0 0 -4.92533 4.92533 0 0. 9.
 15 1 1 2 0 0 -1.13212 1.77719 -4.08925 4.93151 1.7768 0. -1
 -15 1 1 2 0 0 1.13212 -1.77719 4.1626 4.9925 1.7768 0. 1
</event>
<event>
 4 80 1 -1 -1 -1
 11 -1 0 0 0 0 0 0 4.99526 4.99526 0 0. 9.
 -11 -1 0 0 0 0 0 0 -5 5 0 0. 9.
 15 1 1 2 0 0 0.9209 -1.81743 -4.20564 4.99962 1.7768 0. 1
 -15 1 1 2 0 0 -0.9209 1.81743 4.20089 4.99563 1.7768 0. -1
</event>
<event>
 4 80 1 -1 -1 -1
 11 -1 0 0 0 0 0 0 4.92332 4.92332 0 0. 9.
 -11 -1 0 0 0 0 0 0 -5 5 0 0. 9.
 15 1 1 2 0 0 -0.992942 2.56891 3.6865 4.93288 1.7768 0. -1
 -15 1 1 2 0 0 0.992942 -2.56891 -3.76318 4.99044 1.7768 0. 1
</event>
<event>
 4 80 1 -1 -1 -1
 11 -1 0 0 0 0 0 0 0.976455 0.976455 0 0. 9.
 -11 -1 0 0 0 0 0 0 -4.99999 4.99999 0 0. 9.
 15 1 1 2 0 0 -0.600629 -0.775466 -0.830894 2.19322 1.7768 0. 1
 -15 1 1 2 0 0 0.600629 0.775466 -3.19265 3.78323 1.7768 0. -1
</event>
<event>
 4 80 1 -1 -1 -1
 11 -1 0 0 0 0 0 0 5 5 0 0. 9.
 -11 -1 0 0 0 0 0 0 -3.02089 3.02089 0 0. 9.
 15 1 1 2 0 0 -0.689789 -2.73952 3.04456 4.51751 1.7768 0. 1
 -15 1 1 2 0 0 0.689789 2.73952 -1.06545 3.50339 1.7768 0. -1
</event>
<event>
 4 80 1 -1 -1 -1
 11 -1 0 0 0 0 0 0 5 5 0 0. 9.
 -11 -1 0 0 0 0 0 0 -4.94563 4.94563 0 0. 9.
 15 1 1 2 0 0 0.766525 3.42691 -3.01246 4.9562 1.7768 0. 1
 -15 1 1 2 0 0 -0.766525 -3.42691 3.06683 4.98943 1.7768 0. -1
</event>
<event>
 4 80 1 -1 -1 -1
 11 -1 0 0 0 0 0 0 4.99769 4.99769 0 0. 9.
 -11 -1 0 0 0 0 0 0 -5 5 0 0. 9.
 15 1 1 2 0 0 -3.56066 1.36646 2.69796 4.99822 1.7768 0. 1
 -15 1 1 2 0 0 3.56066 -1.36646 -2.70027 4.99947 1.7768 0. -1
</event>
<event>
 4 80 1 -1 -1 -1
 11 -1 0 0 0 0 0 0 1.91943 1.91943 0 0. 9.
 -11 -1 0 0 0 0 0 0 -5 5 0 0. 9.
 15 1 1 2 0 0 1.75124 -0.451288 -3.52832 4.3448 1.7768 0. 1
 -15 1 1 2 0 0 -1.75124 0.451288 0.447751 2.57463 1.7768 0. -1
</event>
<event>
 4 80 1 -1 -1 -1
 11 -1 0 0 0 0 0 0 5 5 0 0. 9.
 -11 -1 0 0 0 0 0 0 -4.9913 4.9913 0 0. 9.
 15 1 1 2 0 0 1.98562 4.08104 1.10036 4.9966 1.7768 0. -1
 -15 1 1 2 0 0 -1.98562 -4.08104 -1.09166 4.99469 1.7768 0. 1
</event>
<event>
 4 80 1 -1 -1 -1
 11 -1 0 0 0 0 0 0 5 5 0 0. 9.
 -11 -1 0 0 0 0 0 0 -4.85481 4.85481 0 0. 9.
 15 1 1 2 0 0 -2.89864 -2.41373 -2.55221 4.88874 1.7768 0. 1
 -15 1 1 2 0 0 2.89864 2.41373 2.6974 4.96608 1.7768 0. -1
</event>
<event>
 4 80 1 -1 -1 -1
 11 -1 0 0 0 0 0 0 4.63943 4.63943 0 0. 9.
 -11 -1 0 0 0 0 0 0 -1.15482 1.15482 0 0. 9.
 15 1 1 2 0 0 1.09824 0.989655 1.59209 2.80678 1.7768 0. 1
 -15 1 1 2 0 0 -1.09824 -0.989655 1.89252 2.98746 1.7768 0. -1
</event>
<event>
 4 80 1 -1 -1 -1
 11 -1 0 0 0 0 0 0 4.99999 4.99999 0 0. 9.
 -11 -1 0 0 0 0 0 0 -5 5 0 0. 9.
 15 1 1 2 0 0 3.90076 -2.30188 1.15225 4.99999 1.7768 0. -1
 -15 1 1 2 0 0 -3.90076 2.30188 -1.15226 5 1.7768 0. 1
</event>
<event>
 4 80 1 -1 -1 -1
 11 -1 0 0 0 0 0 0 5 5 0 0. 9.
 -11 -1 0 0 0 0 0 0 -5 5 0 0. 9.
 15 1 1 2 0 0 3.64725 -1.51315 2.50004 5 1.7768 0. 1
 -15 1 1 2 0 0 -3.64725 1.51315 -2.50004 5 1.7768 0. -1
</event>
<event>
 4 80 1 -1 -1 -1
 11 -1 0 0 0 0 0 0 5 5 0 0. 9.
 -11 -1 0 0 0 0 0 0 -5 5 0 0. 9.
 15 1 1 2 0 0 3.65116 -2.01254 -2.1121 5 1.7768 0. 1
 -15 1 1 2 0 0 -3.65116 2.01254 2.1121 5 1.7768 0. -1
</event>
<event>
 4 80 1 -1 -1 -1
 11 -1 0 0 0 0 0 0 5 5 0 0. 9.
 -11 -1 0 0 0 0 0 0 -1.65741 1.65741 0 0. 9.
 15 1 1 2 0 0 0.340061 0.37001 4.22483 4.6108 1.7768 0. 1
 -15 1 1 2 0 0 -0.340061 -0.37001 -0.882239 2.04661 1.7768 0. -1
</event>
<event>
 4 80 1 -1 -1 -1
 11 -1 0 0 0 0 0 0 5 5 0 0. 9.
 -11 -1 0 0 0 0 0 0 -5 5 0 0. 9.
 15 1 1 2 0 0 -4.25838 1.84858 0.539628 5 1.7768 0. 1
 -15 1 1 2 0 0 4.25838 -1.84858 -0.539628 5 1.7768 0. -1
</event>
<event>
 4 80 1 -1 -1 -1
 11 -1 0 0 0 0 0 0 5 5 0 0. 9.
 -11 -1 0 0 0 0 0 0 -4.99981 4.99981 0 0. 9.
 15 1 1 2 0 0 -2.35639 -3.36134 2.23396 4.99995 1.7768 0. -1
 -15 1 1 2 0 0 2.35639 3.36134 -2.23377 4.99987 1.7768 0. 1
</event>
<event>
 4 80 1 -1 -1 -1
 11 -1 0 0 0 0 0 0 5 5 0 0. 9.
 -11 -1 0 0 0 0 0 0 -5 5 0 0. 9.
 15 1 1 2 0 0 -0.631078 -3.68062 2.81016 5 1.7768 0. -1
 -15 1 1 2 0 0 0.631078 3.68062 -2.81016 5 1.7768 0. 1
</event>
<event>
 4 80 1 -1 -1 -1
 11 -1 0 0 0 0 0 0 5 5 0 0. 9.
 -11 -1 0 0 0 0 0 0 -5 5 0 0. 9.
 15 1 1 2 0 0 0.987325 3.54899 -2.87613 5 1.7768 0. -1
 -15 1 1 2 0 0 -0.987325 -3.54899 2.87613 5 1.7768 0. 1
</event>
<event>
 4 80 1 -1 -1 -1
 11 -1 0 0 0 0 0 0 5 5 0 0. 9.
 -11 -1 0 0 0 0 0 0 -4.99995 4.99995 0 0. 9.
 15 1 1 2 0 0 3.42053 -0.518911 3.14211 4.99999 1.7768 0. -1
 -15 1 1 2 0 0 -3.42053 0.518911 -3.14207 4.99996 1.7768 0. 1
</event>
<event>
 4 80 1 -1 -1 -1
 11 -1 0 0 0 0 0 0 4.59006 4.59006 0 0. 9.
 -11 -1 0 0 0 0 0 0 -5 5 0 0. 9.
 15 1 1 2 0 0 -1.42125 3.97607 -1.60748 4.85498 1.7768 0. -1
 -15 1 1 2 0 0 1.42125 -3.97607 1.19754 4.73508 1.7768 0. 1
</event>
<event>
 4 80 1 -1 -1 -1
 11 -1 0 0 0 0 0 0 5 5 0 0. 9.
 -11 -1 0 0 0 0 0 0 -5 5 0 0. 9.
 15 1 1 2 0 0 -1.84792 0.85402 -4.20691 5 1.7768 0. 1
 -15 1 1 2 0 0 1.84792 -0.85402 4.20691 5 1.7768 0. -1
</event>
<event>
 4 80 1 -1 -1 -1
 11 -1 0 0 0 0 0 0 4.94714 4.94714 0 0. 9.
 -11 -1 0 0 0 0 0 0 -5 5 0 0. 9.
 15 1 1 2 0 0 -3.55251 -1.2386 2.69822 4.95909 1.7768 0. 1
 -15 1 1 2 0 0 3.55251 1.2386 -2.75108 4.98805 1.7768 0. -1
</event>
<event>
 4 80 1 -1 -1 -1
 11 -1 0 0 0 0 0 0 4.85006 4.85006 0 0. 9.
 -11 -1 0 0 0 0 0 0 -4.99903 4.99903 0 0. 9.
 15 1 1 2 0 0 -1.99559 -3.85629 1.42052 4.90193 1.7768 0. -1
 -15 1 1 2 0 0 1.99559 3.85629 -1.56948 4.94715 1.7768 0. 1
</event>
<event>
 4 80 1 -1 -1 -1
 11 -1 0 0 0 0 0 0 5 5 0 0. 9.
 -11 -1 0 0 0 0 0 0 -4.67658 4.67658 0 0. 9.
 15 1 1 2 0 0 -2.94905 -1.68508 -2.78762 4.73972 1.7768 0. 1
 -15 1 1 2 0 0 2.94905 1.68508 3.11103 4.93687 1.7768 0. -1
</event>
<event>
 4 80 1 -1 -1 -1
 11 -1 0 0 0 0 0 0 5 5 0 0. 9.
 -11 -1 0 0 0 0 0 0 -4.76206 4.76206 0 0. 9.
 15 1 1 2 0 0 0.737559 2.22663 4.01251 4.97593 1.7768 0. 1
 -15 1 1 2 0 0 -0.737559 -2.22663 -3.77458 4.78613 1.7768 0. -1
</event>
<event>
 4 80 1 -1 -1 -1
 11 -1 0 0 0 0 0 0 4.99993 4.99993 0 0. 9.
 -11 -1 0 0 0 0 0 0 -4.93745 4.93745 0 0. 9.
 15 1 1 2 0 0 2.32514 -3.33371 -2.20693 4.95462 1.7768 0. -1
 -15 1 1 2 0 0 -2.32514 3.33371 2.26942 4.98276 1.7768 0. 1
</event>
<event>
 4 80 1 -1 -1 -1
 11 -1 0 0 0 0 0 0 4.99999 4.99999 0 0. 9.
 -11 -1 0 0 0 0 0 0 -3.03018 3.03018 0 0. 9.
 15 1 1 2 0 0 1.06991 -1.15467 4.1668 4.79561 1.7768 0. 1
 -15 1 1 2 0 0 -1.06991 1.15467 -2.19699 3.23457 1.7768 0. -1
</event>
<event>
 4 80 1 -1 -1 -1
 11 -1 0 0 0 0 0 0 4.47881 4.47881 0 0. 9.
 -11 -1 0 0 0 0 0 0 -5 5 0 0. 9.
 15 1 1 2 0 0 -2.49346 0.646234 3.29462 4.54392 1.7768 0. 1
 -15 1 1 2 0 0 2.49346 -0.646234 -3.81581 4.93489 1.7768 0. -1
</event>
<event>
 4 80 1 -1 -1 -1
 11 -1 0 0 0 0 0 0 5 5 0 0. 9.
 -11 -1 0 0 0 0 0 0 -5 5 0 0. 9.
 15 1 1 2 0 0 -2.88627 -0.980278 3.54271 5 1.7768 0. 1
 -15 1 1 2 0 0 2.88627 0.980278 -3.54271 5 1.7768 0. -1
</event>
<event>
 4 80 1 -1 -1 -1
 11 -1 0 0 0 0 0 0 4.40795 4.40795 0 0. 9.
 -11 -1 0 0 0 0 0 0 -5 5 0 0. 9.
 15 1 1 2 0 0 -1.48199 -0.833944 -4.30275 4.95612 1.7768 0. -1
 -15 1 1 2 0 0 1.48199 0.833944 3.7107 4.45183 1.7768 0. 1
</event>
<event>
 4 80 1 -1 -1 -1
 11 -1 0 0 0 0 0 0 5 5 0 0. 9.
 -11 -1 0 0 0 0 0 0 -5 5 0 0. 9.
 15 1 1 2 0 0 -2.02204 -3.64599 -2.11196 5 1.7768 0. -1
 -15 1 1 2 0 0 2.02204 3.64599 2.11196 5 1.7768 0. 1
</event>
<event>
 4 80 1 -1 -1 -1
 11 -1 0 0 0 0 0 0 4.99479 4.99479 0 0. 9.
 -11 -1 0 0 0 0 0 0 -5 5 0 0. 9.
 15 1 1 2 0 0 4.49292 -0.726381 -1.05248 4.99794 1.7768 0. 1
 -15 1 1 2 0 0 -4.49292 0.726381 1.04727 4.99685 1.7768 0. -1
</event>
<event>
 4 80 1 -1 -1 -1
 11 -1 0 0 0 0 0 0 4.58909 4.58909 0 0. 9.
 -11 -1 0 0 0 0 0 0 -4.97944 4.97944 0 0. 9.
 15 1 1 2 0 0 2.35774 3.62091 -1.20766 4.82557 1.7768 0. -1
 -15 1 1 2 0 0 -2.35774 -3.62091 0.81731 4.74296 1.7768 0. 1
</event>
<event>
 4 80 1 -1 -1 -1
 11 -1 0 0 0 0 0 0 5 5 0 0. 9.
 -11 -1 0 0 0 0 0 0 -5 5 0 0. 9.
 15 1 1 2 0 0 0.415428 -4.00341 -2.37538 5 1.7768 0. -1
 -15 1 1 2 0 0 -0.415428 4.00341 2.37538 5 1.7768 0. 1
</event>
<event>
 4 80 1 -1 -1 -1
 11 -1 0 0 0 0 0 0 4.56042 4.56042 0 0. 9.
 -11 -1 0 0 0 0 0 0 -4.99999 4.99999 0 0. 9.
 15 1 1 2 0 0 0.555743 -3.20038 -3.23845 4.919 1.7768 0. -1
 -15 1 1 2 0 0 -0.555743 3.20038 2.79888 4.64141 1.7768 0. 1
</event>
<event>
 4 80 1 -1 -1 -1
 11 -1 0 0 0 0 0 0 5 5 0 0. 9.
 -11 -1 0 0 0 0 0 0 -5 5 0 0. 9.
 15 1 1 2 0 0 -3.05814 3.17188 -1.5586 5 1.7768 0. -1
 -15 1 1 2 0 0 3.05814 -3.17188 1.5586 5 1.7768 0. 1
</event>
<event>
 4 80 1 -1 -1 -1
 11 -1 0 0 0 0 0 0 4.41697 4.41697 0 0. 9.
 -11 -1 0 0 0 0 0 0 -5 5 0 0. 9.
 15 1 1 2 0 0 -0.962775 -3.31424 -2.94537 4.87279 1.7768 0. -1
 -15 1 1 2 0 0 0.962775 3.31424 2.36235 4.54418 1.7768 0. 1
</event>
<event>
 4 80 1 -1 -1 -1
 11 -1 0 0 0 0 0 0 4.64296 4.64296 0 0. 9.
 -11 -1 0 0 0 0 0 0 -5 5 0 0. 9.
 15 1 1 2 0 0 -2.5316 2.73556 -2.66312 4.91348 1.7768 0. -1
 -15 1 1 2 0 0 2.5316 -2.73556 2.30608 4.72949 1.7768 0. 1
</event>
<event>
 4 80 1 -1 -1 -1
 11 -1 0 0 0 0 0 0 4.92651 4.92651 0 0. 9.
 -11 -1 0 0 0 0 0 0 -4.99994 4.99994 0 0. 9.
 15 1 1 2 0 0 1.15536 -4.33052 -1.21412 4.97193 1.7768 0. 1
 -15 1 1 2 0 0 -1.15536 4.33052 1.1407 4.95451 1.7768 0. -1
</event>
<event>
 4 80 1 -1 -1 -1
 11 -1 0 0 0 0 0 0 5 5 0 0. 9.
 -11 -1 0 0 0 0 0 0 -5 5 0 0. 9.
 15 1 1 2 0 0 2.89545 -2.40406 -2.77112 5 1.7768 0. -1
 -15 1 1 2 0 0 -2.89545 2.40406 2.77113 5 1.7768 0. 1
</event>
<event>
 4 80 1 -1 -1 -1
 11 -1 0 0 0 0 0 0 5 5 0 0. 9.
 -11 -1 0 0 0 0 0 0 -4.79761 4.79761 0 0. 9.
 15 1 1 2 0 0 -0.544303 0.597827 4.594 4.99161 1.7768 0. -1
 -15 1 1 2 0 0 0.544303 -0.597827 -4.3916 4.80599 1.7768 0. 1
</event>
<event>
 4 80 1 -1 -1 -1
 11 -1 0 0 0 0 0 0 4.99999 4.99999 0 0. 9.
 -11 -1 0 0 0 0 0 0 -2.83866 2.83866 0 0. 9.
 15 1 1 2 0 0 -0.38793 -0.307065 -2.33674 2.97705 1.7768 0. 1
 -15 1 1 2 0 0 0.38793 0.307065 4.49807 4.8616 1.7768 0. -1
</event>
<event>
 4 80 1 -1 -1 -1
 11 -1 0 0 0 0 0 0 2.27305 2.27305 0 0. 9.
 -11 -1 0 0 0 0 0 0 -5 5 0 0. 9.
 15 1 1 2 0 0 1.38743 -0.720619 -3.95307 4.60746 1.7768 0. -1
 -15 1 1 2 0 0 -1.38743 0.720619 1.22612 2.66559 1.7768 0. 1
</event>
<event>
 4 80 1 -1 -1 -1
 11 -1 0 0 0 0 0 0 5 5 0 0. 9.
 -11 -1 0 0 0 0 0 0 -5 5 0 0. 9.
 15 1 1 2 0 0 -2.35089 -2.96714 -2.74075 5 1.7768 0. 1
 -15 1 1 2 0 0 2.35089 2.96714 2.74075 5 1.7768 0. -1
</event>
<event>
 4 80 1 -1 -1 -1
 11 -1 0 0 0 0 0 0 3.98378 3.98378 0 0. 9.
 -11 -1 0 0 0 0 0 0 -5 5 0 0. 9.
 15 1 1 2 0 0 -1.88223 0.527943 -4.12852 4.90142 1.7768 0. 1
 -15 1 1 2 0 0 1.88223 -0.527943 3.11229 4.08236 1.7768 0. -1
</event>
<event>
 4 80 1 -1 -1 -1
 11 -1 0 0 0 0 0 0 4.96979 4.96979 0 0. 9.
 -11 -1 0 0 0 0 0 0 -5 5 0 0. 9.
 15 1 1 2 0 0 -1.7966 3.82592 1.94086 4.97897 1.7768 0. 1
 -15 1 1 2 0 0 1.7966 -3.82592 -1.97107 4.99082 1.7768 0. -1
</event>
<event>
 4 80 1 -1 -1 -1
 11 -1 0 0 0 0 0 0 5 5 0 0. 9.
 -11 -1 0 0 0 0 0 0 -5 5 0 0. 9.
 15 1 1 2 0 0 -1.00449 -0.12183 -4.56272 5 1.7768 0. 1
 -15 1 1 2 0 0 1.00449 0.12183 4.56272 5 1.7768 0. -1
</event>
<event>
 4 80 1 -1 -1 -1
 11 -1 0 0 0 0 0 0 5 5 0 0. 9.
 -11 -1 0 0 0 0 0 0 -5 5 0 0. 9.
 15 1 1 2 0 0 -4.35838 1.42141 0.909067 5 1.7768 0. -1
 -15 1 1 2 0 0 4.35838 -1.42141 -0.909067 5 1.7768 0. 1
</event>
<event>
 4 80 1 -1 -1 -1
 11 -1 0 0 0 0 0 0 5 5 0 0. 9.
 -11 -1 0 0 0 0 0 0 -4.99999 4.99999 0 0. 9.
 15 1 1 2 0 0 2.66547 -3.42722 -1.72965 4.99999 1.7768 0. -1
 -15 1 1 2 0 0 -2.66547 3.42722 1.72966 5 1.7768 0. 1
</event>
<event>
 4 80 1 -1 -1 -1
 11 -1 0 0 0 0 0 0 5 5 0 0. 9.
 -11 -1 0 0 0 0 0 0 -5 5 0 0. 9.
 15 1 1 2 0 0 1.17838 2.03722 -4.03775 5 1.7768 0. -1
 -15 1 1 2 0 0 -1.17838 -2.03722 4.03775 5 1.7768 0. 1
</event>
<event>
 4 80 1 -1 -1 -1
 11 -1 0 0 0 0 0 0 4.99999 4.99999 0 0. 9.
 -11 -1 0 0 0 0 0 0 -5 5 0 0. 9.
 15 1 1 2 0 0 3.37632 -1.96762 2.56342 4.99999 1.7768 0. -1
 -15 1 1 2 0 0 -3.37632 1.96762 -2.56343 5 1.7768 0. 1
</event>
<event>
 4 80 1 -1 -1 -1
 11 -1 0 0 0 0 0 0 4.99723 4.99723 0 0. 9.
 -11 -1 0 0 0 0 0 0 -5 5 0 0. 9.
 15 1 1 2 0 0 4.03491 -0.834239 -2.2041 4.99923 1.7768 0. -1
 -15 1 1 2 0 0 -4.03491 0.834239 2.20133 4.998 1.7768 0. 1
</event>
<event>
 4 80 1 -1 -1 -1
 11 -1 0 0 0 0 0 0 5 5 0 0. 9.
 -11 -1 0 0 0 0 0 0 -5 5 0 0. 9.
 15 1 1 2 0 0 3.34439 0.239685 3.25574 5 1.7768 0. 1
 -15 1 1 2 0 0 -3.34439 -0.239685 -3.25574 5 1.7768 0. -1
</event>
<event>
 4 80 1 -1 -1 -1
 11 -1 0 0 0 0 0 0 4.99969 4.99969 0 0. 9.
 -11 -1 0 0 0 0 0 0 -4.7227 4.7227 0 0. 9.
 15 1 1 2 0 0 -0.497841 -3.15431 -3.06543 4.76992 1.7768 0. -1
 -15 1 1 2 0 0 0.497841 3.15431 3.34242 4.95248 1.7768 0. 1
</event>
<event>
 4 80 1 -1 -1 -1
 11 -1 0 0 0 0 0 0 5 5 0 0. 9.
 -11 -1 0 0 0 0 0 0 -5 5 0 0. 9.
 15 1 1 2 0 0 -2.34016 3.30852 -2.32801 5 1.7768 0. 1
 -15 1 1 2 0 0 2.34016 -3.30852 2.328 5 1.7768 0. -1
</event>
<event>
 4 80 1 -1 -1 -1
 11 -1 0 0 0 0 0 0 3.37022 3.37022 0 0. 9.
 -11 -1 0 0 0 0 0 0 -5 5 0 0. 9.
 15 1 1 2 0 0 3.00104 -1.32598 -2.5597 4.52484 1.7768 0. 1
 -15 1 1 2 0 0 -3.00104 1.32598 0.929917 3.84538 1.7768 0. -1
</event>
<event>
 4 80 1 -1 -1 -1
 11 -1 0 0 0 0 0 0 5 5 0 0. 9.
 -11 -1 0 0 0 0 0 0 -4.99621 4.99621 0 0. 9.
 15 1 1 2 0 0 -2.99967 3.56583 -0.330018 4.99798 1.7768 0. 1
 -15 1 1 2 0 0 2.99967 -3.56583 0.333803 4.99823 1.7768 0. -1
</event>
<event>
 4 80 1 -1 -1 -1
 11 -1 0 0 0 0 0 0 5 5 0 0. 9.
 -11 -1 0 0 0 0 0 0 -5 5 0 0. 9.
 15 1 1 2 0 0 0.0520342 4.19746 -2.05448 5 1.7768 0. -1
 -15 1 1 2 0 0 -0.0520342 -4.19746 2.05448 5 1.7768 0. 1
</event>
<event>
 4 80 1 -1 -1 -1
 11 -1 0 0 0 0 0 0 4.99948 4.99948 0 0. 9.
 -11 -1 0 0 0 0 0 0 -2.69696 2.69696 0 0. 9.
 15 1 1 2 0 0 2.12815 2.00165 2.5534 4.26769 1.7768 0. -1
 -15 1 1 2 0 0 -2.12815 -2.00165 -0.250874 3.42874 1.7768 0. 1
</event>
<event>
 4 80 1 -1 -1 -1
 11 -1 0 0 0 0 0 0 4.99999 4.99999 0 0. 9.
 -11 -1 0 0 0 0 0 0 -5 5 0 0. 9.
 15 1 1 2 0 0 -3.67059 2.21666 -1.85886 5 1.7768 0. 1
 -15 1 1 2 0 0 3.67059 -2.21666 1.85885 4.99999 1.7768 0. -1
</event>
<event>
 4 80 1 -1 -1 -1
 11 -1 0 0 0 0 0 0 5 5 0 0. 9.
 -11 -1 0 0 0 0 0 0 -4.99988 4.99988 0 0. 9.
 15 1 1 2 0 0 1.28921 -3.83397 -2.34094 4.99991 1.7768 0. -1
 -15 1 1 2 0 0 -1.28921 3.83397 2.34107 4.99997 1.7768 0. 1
</event>
<event>
 4 80 1 -1 -1 -1
 11 -1 0 0 0 0 0 0 4.98931 4.98931 0 0. 9.
 -11 -1 0 0 0 0 0 0 -4.99999 4.99999 0 0. 9.
 15 1 1 2 0 0 -3.50161 -0.386083 3.05708 4.99138 1.7768 0. 1
 -15 1 1 2 0 0 3.50161 0.386083 -3.06776 4.99793 1.7768 0. -1
</event>
<event>
 4 80 1 -1 -1 -1
 11 -1 0 0 0 0 0 0 4.34624 4.34624 0 0. 9.
 -11 -1 0 0 0 0 0 0 -4.99999 4.99999 0 0. 9.
 15 1 1 2 0 0 1.5554 -1.27131 -4.1491 4.94047 1.7768 0. -1
 -15 1 1 2 0 0 -1.5554 1.27131 3.49534 4.40576 1.7768 0. 1
</event>
<event>
 4 80 1 -1 -1 -1
 11 -1 0 0 0 0 0 0 5 5 0 0. 9.
 -11 -1 0 0 0 0 0 0 -5 5 0 0. 9.
 15 1 1 2 0 0 -0.692885 1.02504 4.50682 5 1.7768 0. 1
 -15 1 1 2 0 0 0.692885 -1.02504 -4.50682 5 1.7768 0. -1
</event>
<event>
 4 80 1 -1 -1 -1
 11 -1 0 0 0 0 0 0 5 5 0 0. 9.
 -11 -1 0 0 0 0 0 0 -5 5 0 0. 9.
 15 1 1 2 0 0 3.82708 -2.50274 0.965403 5 1.7768 0. 1
 -15 1 1 2 0 0 -3.82708 2.50274 -0.965404 5 1.7768 0. -1
</event>
<event>
 4 80 1 -1 -1 -1
 11 -1 0 0 0 0 0 0 5 5 0 0. 9.
 -11 -1 0 0 0 0 0 0 -3.30877 3.30877 0 0. 9.
 15 1 1 2 0 0 2.81675 2.29876 1.26395 4.23954 1.7768 0. -1
 -15 1 1 2 0 0 -2.81675 -2.29876 0.427278 4.06923 1.7768 0. 1
</event>
<event>
 4 80 1 -1 -1 -1
 11 -1 0 0 0 0 0 0 5 5 0 0. 9.
 -11 -1 0 0 0 0 0 0 -4.81635 4.81635 0 0. 9.
 15 1 1 2 0 0 1.12596 0.948706 4.42343 4.98921 1.7768 0. 1
 -15 1 1 2 0 0 -1.12596 -0.948706 -4.23978 4.82714 1.7768 0. -1
</event>
<event>
 4 80 1 -1 -1 -1
 11 -1 0 0 0 0 0 0 5 5 0 0. 9.
 -11 -1 0 0 0 0 0 0 -4.77369 4.77369 0 0. 9.
 15 1 1 2 0 0 -4.30718 -0.815256 -1.10957 4.85853 1.7768 0. 1
 -15 1 1 2 0 0 4.30718 0.815256 1.33588 4.91516 1.7768 0. -1
</event>
<event>
 4 80 1 -1 -1 -1
 11 -1 0 0 0 0 0 0 5 5 0 0. 9.
 -11 -1 0 0 0 0 0 0 -5 5 0 0. 9.
 15 1 1 2 0 0 1.06622 -0.518786 -4.52065 5 1.7768 0. -1
 -15 1 1 2 0 0 -1.06622 0.518786 4.52065 5 1.7768 0. 1
</event>
<event>
 4 80 1 -1 -1 -1
 11 -1 0 0 0 0 0 0 4.97135 4.97135 0 0. 9.
 -11 -1 0 0 0 0 0 0 -5 5 0 0. 9.
 15 1 1 2 0 0 1.86396 -0.868791 4.1654 4.97367 1.7768 0. -1
 -15 1 1 2 0 0 -1.86396 0.868791 -4.19404 4.99768 1.7768 0. 1
</event>
<event>
 4 80 1 -1 -1 -1
 11 -1 0 0 0 0 0 0 5 5 0 0. 9.
 -11 -1 0 0 0 0 0 0 -4.99991 4.99991 0 0. 9.
 15 1 1 2 0 0 -2.05503 4.07211 -1.0181 4.99995 1.7768 0. -1
 -15 1 1 2 0 0 2.05503 -4.07211 1.01819 4.99996 1.7768 0. 1
</event>
<event>
 4 80 1 -1 -1 -1
 11 -1 0 0 0 0 0 0 1.42948 1.42948 0 0. 9.
 -11 -1 0 0 0 0 0 0 -5 5 0 0. 9.
 15 1 1 2 0 0 -0.393636 -1.3308 -3.51267 4.17403 1.7768 0. -1
 -15 1 1 2 0 0 0.393636 1.3308 -0.057857 2.25545 1.7768 0. 1
</event>
<event>
 4 80 1 -1 -1 -1
 11 -1 0 0 0 0 0 0 4.77195 4.77195 0 0. 9.
 -11 -1 0 0 0 0 0 0 -5 5 0 0. 9.
 15 1 1 2 0 0 1.13547 1.53143 -4.24643 4.98241 1.7768 0. 1
 -15 1 1 2 0 0 -1.13547 -1.53143 4.01838 4.78954 1.7768 0. -1
</event>
<event>
 4 80 1 -1 -1 -1
 11 -1 0 0 0 0 0 0 4.99873 4.99873 0 0. 9.
 -11 -1 0 0 0 0 0 0 -5 5 0 0. 9.
 15 1 1 2 0 0 2.01935 3.99621 -1.33797 4.99953 1.7768 0. -1
 -15 1 1 2 0 0 -2.01935 -3.99621 1.3367 4.99919 1.7768 0. 1
</event>
<event>
 4 80 1 -1 -1 -1
 11 -1 0 0 0 0 0 0 4.99981 4.99981 0 0. 9.
 -11 -1 0 0 0 0 0 0 -5 5 0 0. 9.
 15 1 1 2 0 0 1.40271 1.32231 -4.25747 4.99999 1.7768 0. 1
 -15 1 1 2 0 0 -1.40271 -1.32231 4.25727 4.99982 1.7768 0. -1
</event>
<event>
 4 80 1 -1 -1 -1
 11 -1 0 0 0 0 0 0 3.70438 3.70438 0 0. 9.
 -11 -1 0 0 0 0 0 0 -4.92768 4.92768 0 0. 9.
 15 1 1 2 0 0 1.84449 0.159233 -4.06244 4.80506 1.7768 0. -1
 -15 1 1 2 0 0 -1.84449 -0.159233 2.83913 3.827 1.7768 0. 1
</event>
<event>
 4 80 1 -1 -1 -1
 11 -1 0 0 0 0 0 0 4.99954 4.99954 0 0. 9.
 -11 -1 0 0 0 0 0 0 -4.93816 4.93816 0 0. 9.
 15 1 1 2 0 0 1.42448 -3.96375 1.97761 4.98088 1.7768 0. 1
 -15 1 1 2 0 0 -1.42448 3.96375 -1.91623 4.95683 1.7768 0. -1
</event>
<event>
 4 80 1 -1 -1 -1
 11 -1 0 0 0 0 0 0 5 5 0 0. 9.
 -11 -1 0 0 0 0 0 0 -5 5 0 0. 9.
 15 1 1 2 0 0 -0.618629 -2.65946 -3.793 5 1.7768 0. 1
 -15 1 1 2 0 0 0.618629 2.65946 3.793 5 1.7768 0. -1
</event>
<event>
 4 80 1 -1 -1 -1
 11 -1 0 0 0 0 0 0 4.99999 4.99999 0 0. 9.
 -11 -1 0 0 0 0 0 0 -5 5 0 0. 9.
 15 1 1 2 0 0 1.80647 4.21599 -0.896832 4.99999 1.7768 0. -1
 -15 1 1 2 0 0 -1.80647 -4.21599 0.896818 4.99999 1.7768 0. 1
</event>
<event>
 4 80 1 -1 -1 -1
 11 -1 0 0 0 0 0 0 5 5 0 0. 9.
 -11 -1 0 0 0 0 0 0 -4.99999 4.99999 0 0. 9.
 15 1 1 2 0 0 -2.71401 2.53466 -2.83758 4.99999 1.7768 0. 1
 -15 1 1 2 0 0 2.71401 -2.53466 2.83759 5 1.7768 0. -1
</event>
<event>
 4 80 1 -1 -1 -1
 11 -1 0 0 0 0 0 0 4.99998 4.99998 0 0. 9.
 -11 -1 0 0 0 0 0 0 -5 5 0 0. 9.
 15 1 1 2 0 0 3.15792 3.44453 -0.0704036 4.99999 1.7768 0. -1
 -15 1 1 2 0 0 -3.15792 -3.44453 0.0703831 4.99999 1.7768 0. 1
</event>
<event>
 4 80 1 -1 -1 -1
 11 -1 0 0 0 0 0 0 4.8595 4.8595 0 0. 9.
 -11 -1 0 0 0 0 0 0 -2.20603 2.20603 0 0. 9.
 15 1 1 2 0 0 0.294613 2.68628 1.87649 3.73923 1.7768 0. -1
 -15 1 1 2 0 0 -0.294613 -2.68628 0.776977 3.32631 1.7768 0. 1
</event>
<event>
 4 80 1 -1 -1 -1
 11 -1 0 0 0 0 0 0 5 5 0 0. 9.
 -11 -1 0 0 0 0 0 0 -5 5 0 0. 9.
 15 1 1 2 0 0 1.27061 1.06464 4.36971 5 1.7768 0. 1
 -15 1 1 2 0 0 -1.27061 -1.06464 -4.36971 5 1.7768 0. -1
</event>
<event>
 4 80 1 -1 -1 -1
 11 -1 0 0 0 0 0 0 5 5 0 0. 9.
 -11 -1 0 0 0 0 0 0 -5 5 0 0. 9.
 15 1 1 2 0 0 -0.971184 3.87406 -2.42709 5 1.7768 0. 1
 -15 1 1 2 0 0 0.971184 -3.87406 2.42709 5 1.7768 0. -1
</event>
<event>
 4 80 1 -1 -1 -1
 11 -1 0 0 0 0 0 0 4.76329 4.76329 0 0. 9.
 -11 -1 0 0 0 0 0 0 -2.64914 2.64914 0 0. 9.
 15 1 1 2 0 0 2.00743 -1.95469 -0.266888 3.3286 1.7768 0. 1
 -15 1 1 2 0 0 -2.00743 1.95469 2.38104 4.08383 1.7768 0. -1
</event>
<event>
 4 80 1 -1 -1 -1
 11 -1 0 0 0 0 0 0 4.99998 4.99998 0 0. 9.
 -11 -1 0 0 0 0 0 0 -3.69335 3.69335 0 0. 9.
 15 1 1 2 0 0 -3.11045 1.99273 -0.651115 4.15061 1.7768 0. 1
 -15 1 1 2 0 0 3.11045 -1.99273 1.95774 4.54273 1.7768 0. -1
</event>
<event>
 4 80 1 -1 -1 -1
 11 -1 0 0 0 0 0 0 4.99973 4.99973 0 0. 9.
 -11 -1 0 0 0 0 0 0 -4.98922 4.98922 0 0. 9.
 15 1 1 2 0 0 2.87692 -0.0956456 3.67965 4.99834 1.7768 0. 1
 -15 1 1 2 0 0 -2.87692 0.0956456 -3.66914 4.99061 1.7768 0. -1
</event>
<event>
 4 80 1 -1 -1 -1
 11 -1 0 0 0 0 0 0 5 5 0 0. 9.
 -11 -1 0 0 0 0 0 0 -4.90836 4.90836 0 0. 9.
 15 1 1 2 0 0 4.33473 1.50621 0.616386 4.95946 1.7768 0. -1
 -15 1 1 2 0 0 -4.33473 -1.50621 -0.524746 4.9489 1.7768 0. 1
</event>
<event>
 4 80 1 -1 -1 -1
 11 -1 0 0 0 0 0 0 4.97701 4.97701 0 0. 9.
 -11 -1 0 0 0 0 0 0 -4.90209 4.90209 0 0. 9.
 15 1 1 2 0 0 4.33073 0.464257 -1.469 4.92812 1.7768 0. 1
 -15 1 1 2 0 0 -4.33073 -0.464257 1.54393 4.95097 1.7768 0. -1
</event>
<event>
 4 80 1 -1 -1 -1
 11 -1 0 0 0 0 0 0 4.48956 4.48956 0 0. 9.
 -11 -1 0 0 0 0 0 0 -4.99883 4.99883 0 0. 9.
 15 1 1 2 0 0 0.748595 -4.0687 -1.72989 4.82338 1.7768 0. -1
 -15 1 1 2 0 0 -0.748595 4.0687 1.22062 4.66501 1.7768 0. 1
</event>
<event>
 4 80 1 -1 -1 -1
 11 -1 0 0 0 0 0 0 5 5 0 0. 9.
 -11 -1 0 0 0 0 0 0 -4.65036 4.65036 0 0. 9.
 15 1 1 2 0 0 3.7055 -1.54044 -1.82409 4.75276 1.7768 0. -1
 -15 1 1 2 0 0 -3.7055 1.54044 2.17373 4.8976 1.7768 0. 1
</event>
<event>
 4 80 1 -1 -1 -1
 11 -1 0 0 0 0 0 0 5 5 0 0. 9.
 -11 -1 0 0 0 0 0 0 -4.2446 4.2446 0 0. 9.
 15 1 1 2 0 0 0.482542 1.70372 4.25457 4.93909 1.7768 0. 1
 -15 1 1 2 0 0 -0.482542 -1.70372 -3.49917 4.30551 1.7768 0. -1
</event>
<event>
 4 80 1 -1 -1 -1
 11 -1 0 0 0 0 0 0 3.9986 3.9986 0 0. 9.
 -11 -1 0 0 0 0 0 0 -5 5 0 0. 9.
 15 1 1 2 0 0 1.71636 -0.120025 -4.2489 4.91641 1.7768 0. 1
 -15 1 1 2 0 0 -1.71636 0.120025 3.2475 4.08219 1.7768 0. -1
</event>
<event>
 4 80 1 -1 -1 -1
 11 -1 0 0 0 0 0 0 5 5 0 0. 9.
 -11 -1 0 0 0 0 0 0 -5 5 0 0. 9.
 15 1 1 2 0 0 -2.62403 -3.86326 0.178786 5 1.7768 0. 1
 -15 1 1 2 0 0 2.62403 3.86326 -0.178786 5 1.7768 0. -1
</event>
<event>
 4 80 1 -1 -1 -1
 11 -1 0 0 0 0 0 0 5 5 0 0. 9.
 -11 -1 0 0 0 0 0 0 -4.96083 4.96083 0 0. 9.
 15 1 1 2 0 0 0.549652 -3.48798 -3.01001 4.9685 1.7768 0. 1
 -15 1 1 2 0 0 -0.549652 3.48798 3.04918 4.99233 1.7768 0. -1
</event>
<event>
 4 80 1 -1 -1 -1
 11 -1 0 0 0 0 0 0 5 5 0 0. 9.
 -11 -1 0 0 0 0 0 0 -5 5 0 0. 9.
 15 1 1 2 0 0 -2.13898 0.207956 -4.15015 5 1.7768 0. 1
 -15 1 1 2 0 0 2.13898 -0.207956 4.15015 5 1.7768 0. -1
</event>
<event>
 4 80 1 -1 -1 -1
 11 -1 0 0 0 0 0 0 4.24558 4.24558 0 0. 9.
 -11 -1 0 0 0 0 0 0 -4.99995 4.99995 0 0. 9.
 15 1 1 2 0 0 0.28197 -0.534301 -4.59899 4.96723 1.7768 0. 1
 -15 1 1 2 0 0 -0.28197 0.534301 3.84462 4.27829 1.7768 0. -1
</event>
<event>
 4 80 1 -1 -1 -1
 11 -1 0 0 0 0 0 0 3.77859 3.77859 0 0. 9.
 -11 -1 0 0 0 0 0 0 -4.99999 4.99999 0 0. 9.
 15 1 1 2 0 0 -2.9913 0.0270717 2.01999 4.02327 1.7768 0. 1
 -15 1 1 2 0 0 2.9913 -0.0270717 -3.2414 4.75531 1.7768 0. -1
</event>
<event>
 4 80 1 -1 -1 -1
 11 -1 0 0 0 0 0 0 5 5 0 0. 9.
 -11 -1 0 0 0 0 0 0 -4.8131 4.8131 0 0. 9.
 15 1 1 2 0 0 2.89121 -2.06784 -2.78331 4.85176 1.7768 0. -1
 -15 1 1 2 0 0 -2.89121 2.06784 2.97021 4.96134 1.7768 0. 1
</event>
<event>
 4 80 1 -1 -1 -1
 11 -1 0 0 0 0 0 0 5 5 0 0. 9.
 -11 -1 0 0 0 0 0 0 -4.30957 4.30957 0 0. 9.
 15 1 1 2 0 0 -0.348819 3.81304 -1.59122 4.51117 1.7768 0. -1
 -15 1 1 2 0 0 0.348819 -3.81304 2.28165 4.7984 1.7768 0. 1
</event>
<event>
 4 80 1 -1 -1 -1
 11 -1 0 0 0 0 0 0 4.94409 4.94409 0 0. 9.
 -11 -1 0 0 0 0 0 0 -3.69621 3.69621 0 0. 9.
 15 1 1 2 0 0 -2.06886 3.1648 1.53937 4.45236 1.7768 0. 1
 -15 1 1 2 0 0 2.06886 -3.1648 -0.291482 4.18794 1.7768 0. -1
</event>
<event>
 4 80 1 -1 -1 -1
 11 -1 0 0 0 0 0 0 5 5 0 0. 9.
 -11 -1 0 0 0 0 0 0 -5 5 0 0. 9.
 15 1 1 2 0 0 2.62497 -2.35631 3.06588 5 1.7768 0. -1
 -15 1 1 2 0 0 -2.62497 2.35631 -3.06588 5 1.7768 0. 1
</event>
<event>
 4 80 1 -1 -1 -1
 11 -1 0 0 0 0 0 0 5 5 0 0. 9.
 -11 -1 0 0 0 0 0 0 -4.99999 4.99999 0 0. 9.
 15 1 1 2 0 0 1.6941 1.06173 4.22434 5 1.7768 0. 1
 -15 1 1 2 0 0 -1.6941 -1.06173 -4.22433 4.99999 1.7768 0. -1
</event>
<event>
 4 80 1 -1 -1 -1
 11 -1 0 0 0 0 0 0 4.99965 4.99965 0 0. 9.
 -11 -1 0 0 0 0 0 0 -5 5 0 0. 9.
 15 1 1 2 0 0 0.0440136 -3.47282 3.12681 4.99971 1.7768 0. 1
 -15 1 1 2 0 0 -0.0440136 3.47282 -3.12717 4.99993 1.7768 0. -1
</event>
<event>
 4 80 1 -1 -1 -1
 11 -1 0 0 0 0 0 0 4.99226 4.99226 0 0. 9.
 -11 -1 0 0 0 0 0 0 -5 5 0 0. 9.
 15 1 1 2 0 0 -2.81879 -1.16727 3.53102 4.99339 1.7768 0. -1
 -15 1 1 2 0 0 2.81879 1.16727 -3.53876 4.99887 1.7768 0. 1
</event>
<event>
 4 80 1 -1 -1 -1
 11 -1 0 0 0 0 0 0 4.89192 4.89192 0 0. 9.
 -11 -1 0 0 0 0 0 0 -4.99933 4.99933 0 0. 9.
 15 1 1 2 0 0 -0.403443 -4.55943 0.535791 4.93922 1.7768 0. -1
 -15 1 1 2 0 0 0.403443 4.55943 -0.643199 4.95203 1.7768 0. 1
</event>
<event>
 4 80 1 -1 -1 -1
 11 -1 0 0 0 0 0 0 5 5 0 0. 9.
 -11 -1 0 0 0 0 0 0 -4.98637 4.98637 0 0. 9.
 15 1 1 2 0 0 -2.08681 -0.820502 4.09902 4.99877 1.7768 0. 1
 -15 1 1 2 0 0 2.08681 0.820502 -4.0854 4.9876 1.7768 0. -1
</event>
<event>
 4 80 1 -1 -1 -1
 11 -1 0 0 0 0 0 0 1.83323 1.83323 0 0. 9.
 -11 -1 0 0 0 0 0 0 -4.74446 4.74446 0 0. 9.
 15 1 1 2 0 0 -1.20489 0.263381 0.779963 2.29939 1.7768 0. 1
 -15 1 1 2 0 0 1.20489 -0.263381 -3.6912 4.2783 1.7768 0. -1
</event>
<event>
 4 80 1 -1 -1 -1
 11 -1 0 0 0 0 0 0 4.92293 4.92293 0 0. 9.
 -11 -1 0 0 0 0 0 0 -5 5 0 0. 9.
 15 1 1 2 0 0 -2.74751 1.73361 -3.34056 4.98711 1.7768 0. 1
 -15 1 1 2 0 0 2.74751 -1.73361 3.26349 4.93582 1.7768 0. -1
</event>
<event>
 4 80 1 -1 -1 -1
 11 -1 0 0 0 0 0 0 4.9924 4.9924 0 0. 9.
 -11 -1 0 0 0 0 0 0 -5 5 0 0. 9.
 15 1 1 2 0 0 -1.96889 3.2639 2.69336 4.99415 1.7768 0. -1
 -15 1 1 2 0 0 1.96889 -3.2639 -2.70097 4.99825 1.7768 0. 1
</event>
<event>
 4 80 1 -1 -1 -1
 11 -1 0 0 0 0 0 0 4.093 4.093 0 0. 9.
 -11 -1 0 0 0 0 0 0 -3.71157 3.71157 0 0. 9.
 15 1 1 2 0 0 -0.321591 -2.45922 2.61901 4.02096 1.7768 0. -1
 -15 1 1 2 0 0 0.321591 2.45922 -2.23759 3.78361 1.7768 0. 1
</event>
<event>
 4 80 1 -1 -1 -1
 11 -1 0 0 0 0 0 0 1.67724 1.67724 0 0. 9.
 -11 -1 0 0 0 0 0 0 -4.66743 4.66743 0 0. 9.
 15 1 1 2 0 0 0.269004 0.236026 0.921448 2.03344 1.7768 0. -1
 -15 1 1 2 0 0 -0.269004 -0.236026 -3.91163 4.31123 1.7768 0. 1
</event>
<event>
 4 80 1 -1 -1 -1
 11 -1 0 0 0 0 0 0 5 5 0 0. 9.
 -11 -1 0 0 0 0 0 0 -5 5 0 0. 9.
 15 1 1 2 0 0 -0.554587 -2.693 3.77921 5 1.7768 0. 1
 -15 1 1 2 0 0 0.554587 2.693 -3.77921 5 1.7768 0. -1
</event>
<event>
 4 80 1 -1 -1 -1
 11 -1 0 0 0 0 0 0 4.99996 4.99996 0 0. 9.
 -11 -1 0 0 0 0 0 0 -5 5 0 0. 9.
 15 1 1 2 0 0 0.0831087 1.62117 -4.38259 5 1.7768 0. 1
 -15 1 1 2 0 0 -0.0831087 -1.62117 4.38255 4.99996 1.7768 0. -1
</event>
<event>
 4 80 1 -1 -1 -1
 11 -1 0 0 0 0 0 0 5 5 0 0. 9.
 -11 -1 0 0 0 0 0 0 -5 5 0 0. 9.
 15 1 1 2 0 0 3.07105 -1.43825 -3.21596 5 1.7768 0. -1
 -15 1 1 2 0 0 -3.07105 1.43825 3.21596 5 1.7768 0. 1
</event>
<event>
 4 80 1 -1 -1 -1
 11 -1 0 0 0 0 0 0 5 5 0 0. 9.
 -11 -1 0 0 0 0 0 0 -4.96606 4.96606 0 0. 9.
 15 1 1 2 0 0 1.5686 -2.37119 -3.66944 4.97048 1.7768 0. -1
 -15 1 1 2 0 0 -1.5686 2.37119 3.70338 4.99558 1.7768 0. 1
</event>
<event>
 4 80 1 -1 -1 -1
 11 -1 0 0 0 0 0 0 5 5 0 0. 9.
 -11 -1 0 0 0 0 0 0 -4.99492 4.99492 0 0. 9.
 15 1 1 2 0 0 -2.34639 0.163899 4.03794 4.99951 1.7768 0. 1
 -15 1 1 2 0 0 2.34639 -0.163899 -4.03286 4.99541 1.7768 0. -1
</event>
<event>
 4 80 1 -1 -1 -1
 11 -1 0 0 0 0 0 0 4.60727 4.60727 0 0. 9.
 -11 -1 0 0 0 0 0 0 -5 5 0 0. 9.
 15 1 1 2 0 0 -1.81349 1.18257 -4.09724 4.9631 1.7768 0. 1
 -15 1 1 2 0 0 1.81349 -1.18257 3.70452 4.64418 1.7768 0. -1
</event>
<event>
 4 80 1 -1 -1 -1
 11 -1 0 0 0 0 0 0 5 5 0 0. 9.
 -11 -1 0 0 0 0 0 0 -4.98444 4.98444 0 0. 9.
 15 1 1 2 0 0 3.31565 0.349664 -3.25546 4.98713 1.7768 0. 1
 -15 1 1 2 0 0 -3.31565 -0.349664 3.27102 4.99731 1.7768 0. -1
</event>
<event>
 4 80 1 -1 -1 -1
 11 -1 0 0 0 0 0 0 4.98385 4.98385 0 0. 9.
 -11 -1 0 0 0 0 0 0 -5 5 0 0. 9.
 15 1 1 2 0 0 -0.599444 -0.591129 4.58026 4.98451 1.7768 0. 1
 -15 1 1 2 0 0 0.599444 0.591129 -4.59641 4.99935 1.7768 0. -1
</event>
<event>
 4 80 1 -1 -1 -1
 11 -1 0 0 0 0 0 0 5 5 0 0. 9.
 -11 -1 0 0 0 0 0 0 -5 5 0 0. 9.
 15 1 1 2 0 0 1.98504 -1.52604 -3.94628 5 1.7768 0. 1
 -15 1 1 2 0 0 -1.98504 1.52604 3.94627 5 1.7768 0. -1
</event>
<event>
 4 80 1 -1 -1 -1
 11 -1 0 0 0 0 0 0 4.99746 4.99746 0 0. 9.
 -11 -1 0 0 0 0 0 0 -5 5 0 0. 9.
 15 1 1 2 0 0 -3.64442 -2.8489 0.655654 4.99856 1.7768 0. -1
 -15 1 1 2 0 0 3.64442 2.8489 -0.658191 4.9989 1.7768 0. 1
</event>
<event>
 4 80 1 -1 -1 -1
 11 -1 0 0 0 0 0 0 5 5 0 0. 9.
 -11 -1 0 0 0 0 0 0 -5 5 0 0. 9.
 15 1 1 2 0 0 -4.05521 -1.48389 -1.78763 5 1.7768 0. 1
 -15 1 1 2 0 0 4.05521 1.48389 1.78763 5 1.7768 0. -1
</event>
<event>
 4 80 1 -1 -1 -1
 11 -1 0 0 0 0 0 0 5 5 0 0. 9.
 -11 -1 0 0 0 0 0 0 -4.37084 4.37084 0 0. 9.
 15 1 1 2 0 0 -0.570829 -3.03961 -2.71408 4.48208 1.7768 0. -1
 -15 1 1 2 0 0 0.570829 3.03961 3.34323 4.88876 1.7768 0. 1
</event>
<event>
 4 80 1 -1 -1 -1
 11 -1 0 0 0 0 0 0 5 5 0 0. 9.
 -11 -1 0 0 0 0 0 0 -3.02856 3.02856 0 0. 9.
 15 1 1 2 0 0 1.55677 3.01376 1.6995 4.18955 1.7768 0. 1
 -15 1 1 2 0 0 -1.55677 -3.01376 0.271945 3.83901 1.7768 0. -1
</event>
<event>
 4 80 1 -1 -1 -1
 11 -1 0 0 0 0 0 0 5 5 0 0. 9.
 -11 -1 0 0 0 0 0 0 -4.99982 4.99982 0 0. 9.
 15 1 1 2 0 0 3.89725 -1.57978 -2.03882 4.99988 1.7768 0. -1
 -15 1 1 2 0 0 -3.89725 1.57978 2.039 4.99995 1.7768 0. 1
</event>
<event>
 4 80 1 -1 -1 -1
 11 -1 0 0 0 0 0 0 5 5 0 0. 9.
 -11 -1 0 0 0 0 0 0 -5 5 0 0. 9.
 15 1 1 2 0 0 3.20441 0.231989 -3.39414 5 1.7768 0. -1
 -15 1 1 2 0 0 -3.20441 -0.231989 3.39414 5 1.7768 0. 1
</event>
<event>
 4 80 1 -1 -1 -1
 11 -1 0 0 0 0 0 0 5 5 0 0. 9.
 -11 -1 0 0 0 0 0 0 -4.99634 4.99634 0 0. 9.
 15 1 1 2 0 0 4.3196 0.270198 -1.75659 4.99753 1.7768 0. 1
 -15 1 1 2 0 0 -4.3196 -0.270198 1.76025 4.99881 1.7768 0. -1
</event>
<event>
 4 80 1 -1 -1 -1
 11 -1 0 0 0 0 0 0 5 5 0 0. 9.
 -11 -1 0 0 0 0 0 0 -5 5 0 0. 9.
 15 1 1 2 0 0 3.68681 -1.17278 2.62189 5 1.7768 0. -1
 -15 1 1 2 0 0 -3.68681 1.17278 -2.62189 5 1.7768 0. 1
</event>
<event>
 4 80 1 -1 -1 -1
 11 -1 0 0 0 0 0 0 4.89985 4.89985 0 0. 9.
 -11 -1 0 0 0 0 0 0 -5 5 0 0. 9.
 15 1 1 2 0 0 3.60949 2.659 -1.16495 4.9612 1.7768 0. 1
 -15 1 1 2 0 0 -3.60949 -2.659 1.0648 4.93865 1.7768 0. -1
</event>
<event>
 4 80 1 -1 -1 -1
 11 -1 0 0 0 0 0 0 5 5 0 0. 9.
 -11 -1 0 0 0 0 0 0 -4.99988 4.99988 0 0. 9.
 15 1 1 2 0 0 -0.368252 -4.63284 0.492869 4.99995 1.7768 0. 1
 -15 1 1 2 0 0 0.368252 4.63284 -0.492755 4.99994 1.7768 0. -1
</event>
<event>
 4 80 1 -1 -1 -1
 11 -1 0 0 0 0 0 0 4.99872 4.99872 0 0. 9.
 -11 -1 0 0 0 0 0 0 -5 5 0 0. 9.
 15 1 1 2 0 0 1.71109 -2.77422 -3.34903 4.99979 1.7768 0. 1
 -15 1 1 2 0 0 -1.71109 2.77422 3.34776 4.99894 1.7768 0. -1
</event>
<event>
 4 80 1 -1 -1 -1
 11 -1 0 0 0 0 0 0 5 5 0 0. 9.
 -11 -1 0 0 0 0 0 0 -5 5 0 0. 9.
 15 1 1 2 0 0 -0.897843 -3.61805 2.81885 5 1.7768 0. -1
 -15 1 1 2 0 0 0.897843 3.61805 -2.81885 5 1.7768 0. 1
</event>
<event>
 4 80 1 -1 -1 -1
 11 -1 0 0 0 0 0 0 4.99899 4.99899 0 0. 9.
 -11 -1 0 0 0 0 0 0 -4.99217 4.99217 0 0. 9.
 15 1 1 2 0 0 3.4526 -2.73169 1.55762 4.99664 1.7768 0. 1
 -15 1 1 2 0 0 -3.4526 2.73169 -1.55079 4.99452 1.7768 0. -1
</event>
<event>
 4 80 1 -1 -1 -1
 11 -1 0 0 0 0 0 0 4.01305 4.01305 0 0. 9.
 -11 -1 0 0 0 0 0 0 -4.97605 4.97605 0 0. 9.
 15 1 1 2 0 0 0.536797 2.89425 -3.35225 4.8021 1.7768 0. 1
 -15 1 1 2 0 0 -0.536797 -2.89425 2.38925 4.18701 1.7768 0. -1
</event>
<event>
 4 80 1 -1 -1 -1
 11 -1 0 0 0 0 0 0 3.21439 3.21439 0 0. 9.
 -11 -1 0 0 0 0 0 0 -4.97357 4.97357 0 0. 9.
 15 1 1 2 0 0 3.39768 0.481092 -1.93058 4.31979 1.7768 0. -1
 -15 1 1 2 0 0 -3.39768 -0.481092 0.171404 3.86818 1.7768 0. 1
</event>
<event>
 4 80 1 -1 -1 -1
 11 -1 0 0 0 0 0 0 5 5 0 0. 9.
 -11 -1 0 0 0 0 0 0 -2.83211 2.83211 0 0. 9.
 15 1 1 2 0 0 2.07288 -1.65719 -0.986873 3.34287 1.7768 0. 1
 -15 1 1 2 0 0 -2.07288 1.65719 3.15476 4.48925 1.7768 0. -1
</event>
<event>
 4 80 1 -1 -1 -1
 11 -1 0 0 0 0 0 0 5 5 0 0. 9.
 -11 -1 0 0 0 0 0 0 -5 5 0 0. 9.
 15 1 1 2 0 0 0.357712 4.45471 -1.36743 5 1.7768 0. -1
 -15 1 1 2 0 0 -0.357712 -4.45471 1.36743 5 1.7768 0. 1
</event>
<event>
 4 80 1 -1 -1 -1
 11 -1 0 0 0 0 0 0 5 5 0 0. 9.
 -11 -1 0 0 0 0 0 0 -5 5 0 0. 9.
 15 1 1 2 0 0 4.46608 -0.554499 -1.26052 5 1.7768 0. 1
 -15 1 1 2 0 0 -4.46608 0.554499 1.26052 5 1.7768 0. -1
</event>
<event>
 4 80 1 -1 -1 -1
 11 -1 0 0 0 0 0 0 5 5 0 0. 9.
 -11 -1 0 0 0 0 0 0 -5 5 0 0. 9.
 15 1 1 2 0 0 -2.12247 -1.77398 -3.76701 5 1.7768 0. 1
 -15 1 1 2 0 0 2.12247 1.77398 3.76701 5 1.7768 0. -1
</event>
<event>
 4 80 1 -1 -1 -1
 11 -1 0 0 0 0 0 0 4.99891 4.99891 0 0. 9.
 -11 -1 0 0 0 0 0 0 -5 5 0 0. 9.
 15 1 1 2 0 0 -0.729779 2.83795 3.63955 4.99906 1.7768 0. -1
 -15 1 1 2 0 0 0.729779 -2.83795 -3.64064 4.99985 1.7768 0. 1
</event>
<event>
 4 80 1 -1 -1 -1
 11 -1 0 0 0 0 0 0 5 5 0 0. 9.
 -11 -1 0 0 0 0 0 0 -5 5 0 0. 9.
 15 1 1 2 0 0 3.85235 -1.10842 2.40273 5 1.7768 0. -1
 -15 1 1 2 0 0 -3.85235 1.10842 -2.40273 5 1.7768 0. 1
</event>
<event>
 4 80 1 -1 -1 -1
 11 -1 0 0 0 0 0 0 4.98744 4.98744 0 0. 9.
 -11 -1 0 0 0 0 0 0 -4.26971 4.26971 0 0. 9.
 15 1 1 2 0 0 -0.0112133 3.63651 -1.86433 4.45621 1.7768 0. -1
 -15 1 1 2 0 0 0.0112133 -3.63651 2.58207 4.80095 1.7768 0. 1
</event>
<event>
 4 80 1 -1 -1 -1
 11 -1 0 0 0 0 0 0 4.9905 4.9905 0 0. 9.
 -11 -1 0 0 0 0 0 0 -5 5 0 0. 9.
 15 1 1 2 0 0 -3.55188 -0.373393 3.00183 4.99239 1.7768 0. -1
 -15 1 1 2 0 0 3.55188 0.373393 -3.01133 4.99811 1.7768 0. 1
</event>
<event>
 4 80 1 -1 -1 -1
 11 -1 0 0 0 0 0 0 5 5 0 0. 9.
 -11 -1 0 0 0 0 0 0 -5 5 0 0. 9.
 15 1 1 2 0 0 2.67974 -3.16953 2.14833 5 1.7768 0. -1
 -15 1 1 2 0 0 -2.67974 3.16953 -2.14833 5 1.7768 0. 1
</event>
<event>
 4 80 1 -1 -1 -1
 11 -1 0 0 0 0 0 0 5 5 0 0. 9.
 -11 -1 0 0 0 0 0 0 -5 5 0 0. 9.
 15 1 1 2 0 0 3.23445 2.12259 2.62207 5 1.7768 0. -1
 -15 1 1 2 0 0 -3.23445 -2.12259 -2.62207 5 1.7768 0. 1
</event>
<event>
 4 80 1 -1 -1 -1
 11 -1 0 0 0 0 0 0 4.99939 4.99939 0 0. 9.
 -11 -1 0 0 0 0 0 0 -5 5 0 0. 9.
 15 1 1 2 0 0 0.829987 0.829506 -4.52383 4.99997 1.7768 0. 1
 -15 1 1 2 0 0 -0.829987 -0.829506 4.52322 4.99942 1.7768 0. -1
</event>
<event>
 4 80 1 -1 -1 -1
 11 -1 0 0 0 0 0 0 4.99999 4.99999 0 0. 9.
 -11 -1 0 0 0 0 0 0 -5 5 0 0. 9.
 15 1 1 2 0 0 -0.404955 4.62803 -0.509525 5 1.7768 0. -1
 -15 1 1 2 0 0 0.404955 -4.62803 0.509517 5 1.7768 0. 1
</event>
<event>
 4 80 1 -1 -1 -1
 11 -1 0 0 0 0 0 0 5 5 0 0. 9.
 -11 -1 0 0 0 0 0 0 -4.80693 4.80693 0 0. 9.
 15 1 1 2 0 0 -0.603782 -4.30794 1.49466 4.93099 1.7768 0. 1
 -15 1 1 2 0 0 0.603782 4.30794 -1.30159 4.87594 1.7768 0. -1
</event>
<event>
 4 80 1 -1 -1 -1
 11 -1 0 0 0 0 0 0 2.15873 2.15873 0 0. 9.
 -11 -1 0 0 0 0 0 0 -5 5 0 0. 9.
 15 1 1 2 0 0 1.55517 -1.52316 -3.27512 4.3154 1.7768 0. -1
 -15 1 1 2 0 0 -1.55517 1.52316 0.433845 2.84333 1.7768 0. 1
</event>
<event>
 4 80 1 -1 -1 -1
 11 -1 0 0 0 0 0 0 5 5 0 0. 9.
 -11 -1 0 0 0 0 0 0 -4.28783 4.28783 0 0. 9.
 15 1 1 2 0 0 -1.64533 3.90271 -0.231451 4.59886 1.7768 0. -1
 -15 1 1 2 0 0 1.64533 -3.90271 0.943622 4.68897 1.7768 0. 1
</event>
<event>
 4 80 1 -1 -1 -1
 11 -1 0 0 0 0 0 0 4.99966 4.99966 0 0. 9.
 -11 -1 0 0 0 0 0 0 -5 5 0 0. 9.
 15 1 1 2 0 0 1.61627 1.36316 4.16757 4.99969 1.7768 0. -1
 -15 1 1 2 0 0 -1.61627 -1.36316 -4.16791 4.99997 1.7768 0. 1
</event>
<event>
 4 80 1 -1 -1 -1
 11 -1 0 0 0 0 0 0 4.99986 4.99986 0 0. 9.
 -11 -1 0 0 0 0 0 0 -4.9997 4.9997 0 0. 9.
 15 1 1 2 0 0 3.17887 1.22172 -3.20028 4.99973 1.7768 0. -1
 -15 1 1 2 0 0 -3.17887 -1.22172 3.20043 4.99983 1.7768 0. 1
</event>
<event>
 4 80 1 -1 -1 -1
 11 -1 0 0 0 0 0 0 5 5 0 0. 9.
 -11 -1 0 0 0 0 0 0 -5 5 0 0. 9.
 15 1 1 2 0 0 0.230413 -4.30744 1.79866 5 1.7768 0. 1
 -15 1 1 2 0 0 -0.230413 4.30744 -1.79866 5 1.7768 0. -1
</event>
<event>
 4 80 1 -1 -1 -1
 11 -1 0 0 0 0 0 0 4.99682 4.99682 0 0. 9.
 -11 -1 0 0 0 0 0 0 -5 5 0 0. 9.
 15 1 1 2 0 0 4.1989 -1.16305 -1.6877 4.99895 1.7768 0. -1
 -15 1 1 2 0 0 -4.1989 1.16305 1.68452 4.99787 1.7768 0. 1
</event>
<event>
 4 80 1 -1 -1 -1
 11 -1 0 0 0 0 0 0 4.9993 4.9993 0 0. 9.
 -11 -1 0 0 0 0 0 0 -5 5 0 0. 9.
 15 1 1 2 0 0 -1.22307 4.50086 0.291463 4.99963 1.7768 0. -1
 -15 1 1 2 0 0 1.22307 -4.50086 -0.292161 4.99967 1.7768 0. 1
</event>
<event>
 4 80 1 -1 -1 -1
 11 -1 0 0 0 0 0 0 4.99914 4.99914 0 0. 9.
 -11 -1 0 0 0 0 0 0 -4.11907 4.11907 0 0. 9.
 15 1 1 2 0 0 -0.436592 4.13114 0.0171266 4.51829 1.7768 0. 1
 -15 1 1 2 0 0 0.436592 -4.13114 0.862943 4.59993 1.7768 0. -1
</event>
<event>
 4 80 1 -1 -1 -1
 11 -1 0 0 0 0 0 0 5 5 0 0. 9.
 -11 -1 0 0 0 0 0 0 -5 5 0 0. 9.
 15 1 1 2 0 0 3.97131 2.08623 1.31096 5 1.7768 0. -1
 -15 1 1 2 0 0 -3.97131 -2.08623 -1.31096 5 1.7768 0. 1
</event>
<event>
 4 80 1 -1 -1 -1
 11 -1 0 0 0 0 0 0 5 5 0 0. 9.
 -11 -1 0 0 0 0 0 0 -2.20381 2.20381 0 0. 9.
 15 1 1 2 0 0 -2.05276 0.886774 3.23349 4.31432 1.7768 0. 1
 -15 1 1 2 0 0 2.05276 -0.886774 -0.437296 2.88949 1.7768 0. -1
</event>
<event>
 4 80 1 -1 -1 -1
 11 -1 0 0 0 0 0 0 4.98118 4.98118 0 0. 9.
 -11 -1 0 0 0 0 0 0 -4.80172 4.80172 0 0. 9.
 15 1 1 2 0 0 0.14793 -4.48824 -0.681285 4.8773 1.7768 0. -1
 -15 1 1 2 0 0 -0.14793 4.48824 0.860747 4.90559 1.7768 0. 1
</event>
<event>
 4 80 1 -1 -1 -1
 11 -1 0 0 0 0 0 0 4.72687 4.72687 0 0. 9.
 -11 -1 0 0 0 0 0 0 -5 5 0 0. 9.
 15 1 1 2 0 0 -2.35224 1.41265 3.46319 4.76235 1.7768 0. 1
 -15 1 1 2 0 0 2.35224 -1.41265 -3.73632 4.96452 1.7768 0. -1
</event>
<event>
 4 80 1 -1 -1 -1
 11 -1 0 0 0 0 0 0 5 5 0 0. 9.
 -11 -1 0 0 0 0 0 0 -4.385 4.385 0 0. 9.
 15 1 1 2 0 0 -2.86142 -1.03303 -2.78336 4.48995 1.7768 0. 1
 -15 1 1 2 0 0 2.86142 1.03303 3.39836 4.89504 1.7768 0. -1
</event>
<event>
 4 80 1 -1 -1 -1
 11 -1 0 0 0 0 0 0 4.99996 4.99996 0 0. 9.
 -11 -1 0 0 0 0 0 0 -4.99939 4.99939 0 0. 9.
 15 1 1 2 0 0 -3.35819 1.76676 -2.72738 4.99952 1.7768 0. 1
 -15 1 1 2 0 0 3.35819 -1.76676 2.72794 4.99983 1.7768 0. -1
</event>
<event>
 4 80 1 -1 -1 -1
 11 -1 0 0 0 0 0 0 5 5 0 0. 9.
 -11 -1 0 0 0 0 0 0 -4.99153 4.99153 0 0. 9.
 15 1 1 2 0 0 -4.60331 -0.627396 -0.460351 4.99537 1.7768 0. -1
 -15 1 1 2 0 0 4.60331 0.627396 0.468818 4.99616 1.7768 0. 1
</event>
<event>
 4 80 1 -1 -1 -1
 11 -1 0 0 0 0 0 0 4.99988 4.99988 0 0. 9.
 -11 -1 0 0 0 0 0 0 -5 5 0 0. 9.
 15 1 1 2 0 0 -1.89068 4.04657 -1.37566 4.99996 1.7768 0. 1
 -15 1 1 2 0 0 1.89068 -4.04657 1.37555 4.99993 1.7768 0. -1
</event>
<event>
 4 80 1 -1 -1 -1
 11 -1 0 0 0 0 0 0 5 5 0 0. 9.
 -11 -1 0 0 0 0 0 0 -5 5 0 0. 9.
 15 1 1 2 0 0 -3.59007 -2.9491 -0.506457 5 1.7768 0. 1
 -15 1 1 2 0 0 3.59007 2.9491 0.506457 5 1.7768 0. -1
</event>
<event>
 4 80 1 -1 -1 -1
 11 -1 0 0 0 0 0 0 5 5 0 0. 9.
 -11 -1 0 0 0 0 0 0 -4.99988 4.99988 0 0. 9.
 15 1 1 2 0 0 1.16346 -0.0338027 -4.52618 4.99988 1.7768 0. -1
 -15 1 1 2 0 0 -1.16346 0.0338027 4.52631 4.99999 1.7768 0. 1
</event>
<event>
 4 80 1 -1 -1 -1
 11 -1 0 0 0 0 0 0 5 5 0 0. 9.
 -11 -1 0 0 0 0 0 0 -5 5 0 0. 9.
 15 1 1 2 0 0 -2.68379 -1.94074 -3.29743 5 1.7768 0. -1
 -15 1 1 2 0 0 2.68379 1.94074 3.29743 5 1.7768 0. 1
</event>
<event>
 4 80 1 -1 -1 -1
 11 -1 0 0 0 0 0 0 4.99985 4.99985 0 0. 9.
 -11 -1 0 0 0 0 0 0 -4.90066 4.90066 0 0. 9.
 15 1 1 2 0 0 -1.07682 3.69497 -2.5064 4.92465 1.7768 0. 1
 -15 1 1 2 0 0 1.07682 -3.69497 2.60558 4.97586 1.7768 0. -1
</event>
<event>
 4 80 1 -1 -1 -1
 11 -1 0 0 0 0 0 0 5 5 0 0. 9.
 -11 -1 0 0 0 0 0 0 -5 5 0 0. 9.
 15 1 1 2 0 0 -2.67693 -1.48952 3.52954 5 1.7768 0. -1
 -15 1 1 2 0 0 2.67693 1.48952 -3.52954 5 1.7768 0. 1
</event>
<event>
 4 80 1 -1 -1 -1
 11 -1 0 0 0 0 0 0 5 5 0 0. 9.
 -11 -1 0 0 0 0 0 0 -5 5 0 0. 9.
 15 1 1 2 0 0 -2.99053 0.651162 3.53199 5 1.7768 0. 1
 -15 1 1 2 0 0 2.99053 -0.651162 -3.53199 5 1.7768 0. -1
</event>
<event>
 4 80 1 -1 -1 -1
 11 -1 0 0 0 0 0 0 4.99626 4.99626 0 0. 9.
 -11 -1 0 0 0 0 0 0 -5 5 0 0. 9.
 15 1 1 2 0 0 2.76471 -0.377739 -3.74851 4.99953 1.7768 0. 1
 -15 1 1 2 0 0 -2.76471 0.377739 3.74477 4.99673 1.7768 0. -1
</event>
<event>
 4 80 1 -1 -1 -1
 11 -1 0 0 0 0 0 0 5 5 0 0. 9.
 -11 -1 0 0 0 0 0 0 -5 5 0 0. 9.
 15 1 1 2 0 0 4.50103 -0.419955 -1.18602 5 1.7768 0. -1
 -15 1 1 2 0 0 -4.50103 0.419955 1.18602 5 1.7768 0. 1
</event>
<event>
 4 80 1 -1 -1 -1
 11 -1 0 0 0 0 0 0 4.99592 4.99592 0 0. 9.
 -11 -1 0 0 0 0 0 0 -5 5 0 0. 9.
 15 1 1 2 0 0 -3.17856 3.26856 -1.01945 4.99837 1.7768 0. 1
 -15 1 1 2 0 0 3.17856 -3.26856 1.01537 4.99754 1.7768 0. -1
</event>
<event>
 4 80 1 -1 -1 -1
 11 -1 0 0 0 0 0 0 5 5 0 0. 9.
 -11 -1 0 0 0 0 0 0 -4.87673 4.87673 0 0. 9.
 15 1 1 2 0 0 -2.12831 3.14807 -2.54354 4.90585 1.7768 0. -1
 -15 1 1 2 0 0 2.12831 -3.14807 2.66681 4.97088 1.7768 0. 1
</event>
<event>
 4 80 1 -1 -1 -1
 11 -1 0 0 0 0 0 0 5 5 0 0. 9.
 -11 -1 0 0 0 0 0 0 -4.99998 4.99998 0 0. 9.
 15 1 1 2 0 0 0.263162 4.59388 0.818056 4.99999 1.7768 0. -1
 -15 1 1 2 0 0 -0.263162 -4.59388 -0.818033 4.99999 1.7768 0. 1
</event>
<event>
 4 80 1 -1 -1 -1
 11 -1 0 0 0 0 0 0 4.91191 4.91191 0 0. 9.
 -11 -1 0 0 0 0 0 0 -5 5 0 0. 9.
 15 1 1 2 0 0 4.46881 0.964065 0.664587 4.94966 1.7768 0. -1
 -15 1 1 2 0 0 -4.46881 -0.964065 -0.75268 4.96225 1.7768 0. 1
</event>
<event>
 4 80 1 -1 -1 -1
 11 -1 0 0 0 0 0 0 4.99667 4.99667 0 0. 9.
 -11 -1 0 0 0 0 0 0 -5 5 0 0. 9.
 15 1 1 2 0 0 -2.27295 0.998037 -3.95935 4.99965 1.7768 0. -1
 -15 1 1 2 0 0 2.27295 -0.998037 3.95602 4.99702 1.7768 0. 1
</event>
<event>
 4 80 1 -1 -1 -1
 11 -1 0 0 0 0 0 0 4.98503 4.98503 0 0. 9.
 -11 -1 0 0 0 0 0 0 -5 5 0 0. 9.
 15 1 1 2 0 0 1.55132 2.09592 -3.87633 4.99832 1.7768 0. 1
 -15 1 1 2 0 0 -1.55132 -2.09592 3.86136 4.98671 1.7768 0. -1
</event>
<event>
 4 80 1 -1 -1 -1
 11 -1 0 0 0 0 0 0 4.99611 4.99611 0 0. 9.
 -11 -1 0 0 0 0 0 0 -4.99997 4.99997 0 0. 9.
 15 1 1 2 0 0 -3.45435 0.17305 3.13816 4.99682 1.7768 0. 1
 -15 1 1 2 0 0 3.45435 -0.17305 -3.14203 4.99926 1.7768 0. -1
</event>
<event>
 4 80 1 -1 -1 -1
 11 -1 0 0 0 0 0 0 2.09116 2.09116 0 0. 9.
 -11 -1 0 0 0 0 0 0 -4.89006 4.89006 0 0. 9.
 15 1 1 2 0 0 0.268705 2.59798 -1.94138 3.70788 1.7768 0. -1
 -15 1 1 2 0 0 -0.268705 -2.59798 -0.85752 3.27334 1.7768 0. 1
</event>
<event>
 4 80 1 -1 -1 -1
 11 -1 0 0 0 0 0 0 5 5 0 0. 9.
 -11 -1 0 0 0 0 0 0 -5 5 0 0. 9.
 15 1 1 2 0 0 1.38206 -1.27385 -4.27896 5 1.7768 0. 1
 -15 1 1 2 0 0 -1.38206 1.27385 4.27896 5 1.7768 0. -1
</event>
<event>
 4 80 1 -1 -1 -1
 11 -1 0 0 0 0 0 0 5 5 0 0. 9.
 -11 -1 0 0 0 0 0 0 -4.80529 4.80529 0 0. 9.
 15 1 1 2 0 0 0.953047 2.36504 -3.69377 4.82736 1.7768 0. -1
 -15 1 1 2 0 0 -0.953047 -2.36504 3.88848 4.97793 1.7768 0. 1
</event>
<event>
 4 80 1 -1 -1 -1
 11 -1 0 0 0 0 0 0 5 5 0 0. 9.
 -11 -1 0 0 0 0 0 0 -5 5 0 0. 9.
 15 1 1 2 0 0 -0.128354 -1.08343 4.54445 5 1.7768 0. 1
 -15 1 1 2 0 0 0.128354 1.08343 -4.54445 5 1.7768 0. -1
</event>
<event>
 4 80 1 -1 -1 -1
 11 -1 0 0 0 0 0 0 5 5 0 0. 9.
 -11 -1 0 0 0 0 0 0 -3.6111 3.6111 0 0. 9.
 15 1 1 2 0 0 -1.94445 2.49477 2.93582 4.66707 1.7768 0. 1
 -15 1 1 2 0 0 1.94445 -2.49477 -1.54692 3.94404 1.7768 0. -1
</event>
<event>
 4 80 1 -1 -1 -1
 11 -1 0 0 0 0 0 0 5 5 0 0. 9.
 -11 -1 0 0 0 0 0 0 -5 5 0 0. 9.
 15 1 1 2 0 0 2.40196 -0.997585 3.883 5 1.7768 0. 1
 -15 1 1 2 0 0 -2.40196 0.997585 -3.883 5 1.7768 0. -1
</event>
<event>
 4 80 1 -1 -1 -1
 11 -1 0 0 0 0 0 0 1.5748 1.5748 0 0. 9.
 -11 -1 0 0 0 0 0 0 -5 5 0 0. 9.
 15 1 1 2 0 0 -1.08055 1.56149 -0.478088 2.64427 1.7768 0. 1
 -15 1 1 2 0 0 1.08055 -1.56149 -2.94712 3.93053 1.7768 0. -1
</event>
<event>
 4 80 1 -1 -1 -1
 11 -1 0 0 0 0 0 0 4.99997 4.99997 0 0. 9.
 -11 -1 0 0 0 0 0 0 -5 5 0 0. 9.
 15 1 1 2 0 0 -1.18896 -3.60984 2.71983 4.99997 1.7768 0. 1
 -15 1 1 2 0 0 1.18896 3.60984 -2.71986 4.99999 1.7768 0. -1
</event>
<event>
 4 80 1 -1 -1 -1
 11 -1 0 0 0 0 0 0 4.99229 4.99229 0 0. 9.
 -11 -1 0 0 0 0 0 0 -5 5 0 0. 9.
 15 1 1 2 0 0 1.6547 1.35763 4.14615 4.99295 1.7768 0. -1
 -15 1 1 2 0 0 -1.6547 -1.35763 -4.15386 4.99935 1.7768 0. 1
</event>
<event>
 4 80 1 -1 -1 -1
 11 -1 0 0 0 0 0 0 5 5 0 0. 9.
 -11 -1 0 0 0 0 0 0 -5 5 0 0. 9.
 15 1 1 2 0 0 1.34818 -3.82041 2.33005 5 1.7768 0. 1
 -15 1 1 2 0 0 -1.34818 3.82041 -2.33005 5 1.7768 0. -1
</event>
<event>
 4 80 1 -1 -1 -1
 11 -1 0 0 0 0 0 0 5 5 0 0. 9.
 -11 -1 0 0 0 0 0 0 -5 5 0 0. 9.
 15 1 1 2 0 0 -0.601115 3.46654 3.07637 5 1.7768 0. 1
 -15 1 1 2 0 0 0.601115 -3.46654 -3.07637 5 1.7768 0. -1
</event>
<event>
 4 80 1 -1 -1 -1
 11 -1 0 0 0 0 0 0 5 5 0 0. 9.
 -11 -1 0 0 0 0 0 0 -5 5 0 0. 9.
 15 1 1 2 0 0 -1.19896 -1.44035 4.28137 5 1.7768 0. 1
 -15 1 1 2 0 0 1.19896 1.44035 -4.28137 5 1.7768 0. -1
</event>
<event>
 4 80 1 -1 -1 -1
 11 -1 0 0 0 0 0 0 5 5 0 0. 9.
 -11 -1 0 0 0 0 0 0 -5 5 0 0. 9.
 15 1 1 2 0 0 0.256755 -4.45767 -1.3804 5 1.7768 0. -1
 -15 1 1 2 0 0 -0.256755 4.45767 1.3804 5 1.7768 0. 1
</event>
<event>
 4 80 1 -1 -1 -1
 11 -1 0 0 0 0 0 0 2.1496 2.1496 0 0. 9.
 -11 -1 0 0 0 0 0 0 -5 5 0 0. 9.
 15 1 1 2 0 0 -0.992759 0.0337853 1.37686 2.45768 1.7768 0. -1
 -15 1 1 2 0 0 0.992759 -0.0337853 -4.22726 4.69192 1.7768 0. 1
</event>
<event>
 4 80 1 -1 -1 -1
 11 -1 0 0 0 0 0 0 5 5 0 0. 9.
 -11 -1 0 0 0 0 0 0 -4.99935 4.99935 0 0. 9.
 15 1 1 2 0 0 -3.01232 -3.2408 1.5044 4.99977 1.7768 0. -1
 -15 1 1 2 0 0 3.01232 3.2408 -1.50375 4.99958 1.7768 0. 1
</event>
<event>
 4 80 1 -1 -1 -1
 11 -1 0 0 0 0 0 0 4.98664 4.98664 0 0. 9.
 -11 -1 0 0 0 0 0 0 -5 5 0 0. 9.
 15 1 1 2 0 0 4.56197 -0.943996 0.263011 4.99296 1.7768 0. 1
 -15 1 1 2 0 0 -4.56197 0.943996 -0.276375 4.99368 1.7768 0. -1
</event>
<event>
 4 80 1 -1 -1 -1
 11 -1 0 0 0 0 0 0 4.98813 4.98813 0 0. 9.
 -11 -1 0 0 0 0 0 0 -4.99606 4.99606 0 0. 9.
 15 1 1 2 0 0 0.786779 1.87829 -4.20114 4.99543 1.7768 0. -1
 -15 1 1 2 0 0 -0.786779 -1.87829 4.19321 4.98876 1.7768 0. 1
</event>
<event>
 4 80 1 -1 -1 -1
 11 -1 0 0 0 0 0 0 4.98739 4.98739 0 0. 9.
 -11 -1 0 0 0 0 0 0 -5 5 0 0. 9.
 15 1 1 2 0 0 -1.24865 -1.1745 4.33428 4.98821 1.7768 0. -1
 -15 1 1 2 0 0 1.24865 1.1745 -4.34689 4.99917 1.7768 0. 1
</event>
<event>
 4 80 1 -1 -1 -1
 11 -1 0 0 0 0 0 0 4.99887 4.99887 0 0. 9.
 -11 -1 0 0 0 0 0 0 -4.79799 4.79799 0 0. 9.
 15 1 1 2 0 0 -4.03833 -1.78862 1.2494 4.92199 1.7768 0. -1
 -15 1 1 2 0 0 4.03833 1.78862 -1.04852 4.87488 1.7768 0. 1
</event>
<event>
 4 80 1 -1 -1 -1
 11 -1 0 0 0 0 0 0 4.98353 4.98353 0 0. 9.
 -11 -1 0 0 0 0 0 0 -4.99253 4.99253 0 0. 9.
 15 1 1 2 0 0 -0.825399 -1.1281 4.44172 4.98402 1.7768 0. -1
 -15 1 1 2 0 0 0.825399 1.1281 -4.45071 4.99204 1.7768 0. 1
</event>
<event>
 4 80 1 -1 -1 -1
 11 -1 0 0 0 0 0 0 4.45196 4.45196 0 0. 9.
 -11 -1 0 0 0 0 0 0 -4.25506 4.25506 0 0. 9.
 15 1 1 2 0 0 -2.5654 3.00805 0.493486 4.36244 1.7768 0. -1
 -15 1 1 2 0 0 2.5654 -3.00805 -0.296582 4.34457 1.7768 0. 1
</event>
<event>
 4 80 1 -1 -1 -1
 11 -1 0 0 0 0 0 0 4.99999 4.99999 0 0. 9.
 -11 -1 0 0 0 0 0 0 -4.99985 4.99985 0 0. 9.
 15 1 1 2 0 0 -0.969386 4.24918 -1.687 4.9999 1.7768 0. 1
 -15 1 1 2 0 0 0.969386 -4.24918 1.68714 4.99994 1.7768 0. -1
</event>
<event>
 4 80 1 -1 -1 -1
 11 -1 0 0 0 0 0 0 5 5 0 0. 9.
 -11 -1 0 0 0 0 0 0 -5 5 0 0. 9.
 15 1 1 2 0 0 -1.73016 2.96366 3.17262 5 1.7768 0. 1
 -15 1 1 2 0 0 1.73016 -2.96366 -3.17262 5 1.7768 0. -1
</event>
<event>
 4 80 1 -1 -1 -1
 11 -1 0 0 0 0 0 0 5 5 0 0. 9.
 -11 -1 0 0 0 0 0 0 -4.99859 4.99859 0 0. 9.
 15 1 1 2 0 0 -2.05433 3.58962 2.17547 4.9996 1.7768 0. 1
 -15 1 1 2 0 0 2.05433 -3.58962 -2.17406 4.99899 1.7768 0. -1
</event>
<event>
 4 80 1 -1 -1 -1
 11 -1 0 0 0 0 0 0 4.8938 4.8938 0 0. 9.
 -11 -1 0 0 0 0 0 0 -4.73262 4.73262 0 0. 9.
 15 1 1 2 0 0 1.51377 -1.59336 -3.81513 4.74798 1.7768 0. -1
 -15 1 1 2 0 0 -1.51377 1.59336 3.97631 4.87843 1.7768 0. 1
</event>
<event>
 4 80 1 -1 -1 -1
 11 -1 0 0 0 0 0 0 5 5 0 0. 9.
 -11 -1 0 0 0 0 0 0 -5 5 0 0. 9.
 15 1 1 2 0 0 -2.7305 0.350669 3.77673 5 1.7768 0. -1
 -15 1 1 2 0 0 2.7305 -0.350669 -3.77673 5 1.7768 0. 1
</event>
<event>
 4 80 1 -1 -1 -1
 11 -1 0 0 0 0 0 0 5 5 0 0. 9.
 -11 -1 0 0 0 0 0 0 -5 5 0 0. 9.
 15 1 1 2 0 0 4.64383 -0.519232 -0.0863677 5 1.7768 0. -1
 -15 1 1 2 0 0 -4.64383 0.519232 0.0863651 5 1.7768 0. 1
</event>
<event>
 4 80 1 -1 -1 -1
 11 -1 0 0 0 0 0 0 5 5 0 0. 9.
 -11 -1 0 0 0 0 0 0 -5 5 0 0. 9.
 15 1 1 2 0 0 0.381161 -0.616506 -4.61702 5 1.7768 0. 1
 -15 1 1 2 0 0 -0.381161 0.616506 4.61702 5 1.7768 0. -1
</event>
<event>
 4 80 1 -1 -1 -1
 11 -1 0 0 0 0 0 0 4.9998 4.9998 0 0. 9.
 -11 -1 0 0 0 0 0 0 -5 5 0 0. 9.
 15 1 1 2 0 0 3.32918 -1.30029 -3.01126 4.99996 1.7768 0. -1
 -15 1 1 2 0 0 -3.32918 1.30029 3.01107 4.99984 1.7768 0. 1
</event>
<event>
 4 80 1 -1 -1 -1
 11 -1 0 0 0 0 0 0 5 5 0 0. 9.
 -11 -1 0 0 0 0 0 0 -5 5 0 0. 9.
 15 1 1 2 0 0 2.12366 0.936277 4.05656 5 1.7768 0. -1
 -15 1 1 2 0 0 -2.12366 -0.936277 -4.05656 5 1.7768 0. 1
</event>
<event>
 4 80 1 -1 -1 -1
 11 -1 0 0 0 0 0 0 4.48404 4.48404 0 0. 9.
 -11 -1 0 0 0 0 0 0 -4.99939 4.99939 0 0. 9.
 15 1 1 2 0 0 3.54635 -1.60747 -2.28531 4.8519 1.7768 0. 1
 -15 1 1 2 0 0 -3.54635 1.60747 1.76996 4.63153 1.7768 0. -1
</event>
<event>
 4 80 1 -1 -1 -1
 11 -1 0 0 0 0 0 0 4.98647 4.98647 0 0. 9.
 -11 -1 0 0 0 0 0 0 -5 5 0 0. 9.
 15 1 1 2 0 0 -0.568622 3.081 -3.46491 4.99792 1.7768 0. -1
 -15 1 1 2 0 0 0.568622 -3.081 3.45139 4.98855 1.7768 0. 1
</event>
<event>
 4 80 1 -1 -1 -1
 11 -1 0 0 0 0 0 0 4.78448 4.78448 0 0. 9.
 -11 -1 0 0 0 0 0 0 -4.52815 4.52815 0 0. 9.
 15 1 1 2 0 0 3.18877 1.04227 2.82224 4.73047 1.7768 0. -1
 -15 1 1 2 0 0 -3.18877 -1.04227 -2.56591 4.58216 1.7768 0. 1
</event>
<event>
 4 80 1 -1 -1 -1
 11 -1 0 0 0 0 0 0 4.49838 4.49838 0 0. 9.
 -11 -1 0 0 0 0 0 0 -4.99931 4.99931 0 0. 9.
 15 1 1 2 0 0 -1.81856 3.97999 -0.679576 4.77148 1.7768 0. -1
 -15 1 1 2 0 0 1.81856 -3.97999 0.178643 4.72621 1.7768 0. 1
</event>
<event>
 4 80 1 -1 -1 -1
 11 -1 0 0 0 0 0 0 5 5 0 0. 9.
 -11 -1 0 0 0 0 0 0 -4.97034 4.97034 0 0. 9.
 15 1 1 2 0 0 1.74022 4.11892 -1.28905 4.98129 1.7768 0. 1
 -15 1 1 2 0 0 -1.74022 -4.11892 1.31872 4.98905 1.7768 0. -1
</event>
<event>
 4 80 1 -1 -1 -1
 11 -1 0 0 0 0 0 0 5 5 0 0. 9.
 -11 -1 0 0 0 0 0 0 -4.99931 4.99931 0 0. 9.
 15 1 1 2 0 0 -2.6809 3.7227 0.890929 4.99972 1.7768 0. -1
 -15 1 1 2 0 0 2.6809 -3.7227 -0.890239 4.99959 1.7768 0. 1
</event>
<event>
 4 80 1 -1 -1 -1
 11 -1 0 0 0 0 0 0 5 5 0 0. 9.
 -11 -1 0 0 0 0 0 0 -5 5 0 0. 9.
 15 1 1 2 0 0 4.42463 1.47345 0.306376 5 1.7768 0. 1
 -15 1 1 2 0 0 -4.42463 -1.47345 -0.306376 5 1.7768 0. -1
</event>
<event>
 4 80 1 -1 -1 -1
 11 -1 0 0 0 0 0 0 4.999 4.999 0 0. 9.
 -11 -1 0 0 0 0 0 0 -4.99996 4.99996 0 0. 9.
 15 1 1 2 0 0 2.56468 1.25261 3.69958 4.99913 1.7768 0. -1
 -15 1 1 2 0 0 -2.56468 -1.25261 -3.70054 4.99983 1.7768 0. 1
</event>
<event>
 4 80 1 -1 -1 -1
 11 -1 0 0 0 0 0 0 5 5 0 0. 9.
 -11 -1 0 0 0 0 0 0 -4.99686 4.99686 0 0. 9.
 15 1 1 2 0 0 3.95663 -2.44746 -0.424595 4.9983 1.7768 0. -1
 -15 1 1 2 0 0 -3.95663 2.44746 0.427732 4.99857 1.7768 0. 1
</event>
<event>
 4 80 1 -1 -1 -1
 11 -1 0 0 0 0 0 0 5 5 0 0. 9.
 -11 -1 0 0 0 0 0 0 -5 5 0 0. 9.
 15 1 1 2 0 0 1.62433 -2.41483 3.65683 5 1.7768 0. 1
 -15 1 1 2 0 0 -1.62433 2.41483 -3.65683 5 1.7768 0. -1
</event>
<event>
 4 80 1 -1 -1 -1
 11 -1 0 0 0 0 0 0 4.73332 4.73332 0 0. 9.
 -11 -1 0 0 0 0 0 0 -4.99801 4.99801 0 0. 9.
 15 1 1 2 0 0 4.00201 1.59417 1.26172 4.82775 1.7768 0. -1
 -15 1 1 2 0 0 -4.00201 -1.59417 -1.52641 4.90358 1.7768 0. 1
</event>
<event>
 4 80 1 -1 -1 -1
 11 -1 0 0 0 0 0 0 5 5 0 0. 9.
 -11 -1 0 0 0 0 0 0 -5 5 0 0. 9.
 15 1 1 2 0 0 0.0571677 0.459471 -4.65058 5 1.7768 0. -1
 -15 1 1 2 0 0 -0.0571677 -0.459471 4.65058 5 1.7768 0. 1
</event>
<event>
 4 80 1 -1 -1 -1
 11 -1 0 0 0 0 0 0 5 5 0 0. 9.
 -11 -1 0 0 0 0 0 0 -4.85013 4.85013 0 0. 9.
 15 1 1 2 0 0 2.75183 0.519198 -3.56565 4.86968 1.7768 0. 1
 -15 1 1 2 0 0 -2.75183 -0.519198 3.71552 4.98046 1.7768 0. -1
</event>
<event>
 4 80 1 -1 -1 -1
 11 -1 0 0 0 0 0 0 5 5 0 0. 9.
 -11 -1 0 0 0 0 0 0 -5 5 0 0. 9.
 15 1 1 2 0 0 -2.72954 -3.66468 -0.98082 5 1.7768 0. -1
 -15 1 1 2 0 0 2.72954 3.66468 0.98082 5 1.7768 0. 1
</event>
<event>
 4 80 1 -1 -1 -1
 11 -1 0 0 0 0 0 0 4.99759 4.99759 0 0. 9.
 -11 -1 0 0 0 0 0 0 -5 5 0 0. 9.
 15 1 1 2 0 0 0.781097 3.82712 2.56262 4.99818 1.7768 0. 1
 -15 1 1 2 0 0 -0.781097 -3.82712 -2.56504 4.99941 1.7768 0. -1
</event>
<event>
 4 80 1 -1 -1 -1
 11 -1 0 0 0 0 0 0 5 5 0 0. 9.
 -11 -1 0 0 0 0 0 0 -5 5 0 0. 9.
 15 1 1 2 0 0 4.0748 -0.989344 -2.06384 5 1.7768 0. -1
 -15 1 1 2 0 0 -4.0748 0.989344 2.06384 5 1.7768 0. 1
</event>
<event>
 4 80 1 -1 -1 -1
 11 -1 0 0 0 0 0 0 4.9987 4.9987 0 0. 9.
 -11 -1 0 0 0 0 0 0 -4.9998 4.9998 0 0. 9.
 15 1 1 2 0 0 0.187936 -0.315894 -4.65884 4.99976 1.7768 0. -1
 -15 1 1 2 0 0 -0.187936 0.315894 4.65774 4.99874 1.7768 0. 1
</event>
<event>
 4 80 1 -1 -1 -1
 11 -1 0 0 0 0 0 0 4.33259 4.33259 0 0. 9.
 -11 -1 0 0 0 0 0 0 -4.49126 4.49126 0 0. 9.
 15 1 1 2 0 0 2.8571 2.76751 -0.771505 4.42437 1.7768 0. -1
 -15 1 1 2 0 0 -2.8571 -2.76751 0.612838 4.39948 1.7768 0. 1
</event>
<event>
 4 80 1 -1 -1 -1
 11 -1 0 0 0 0 0 0 4.98575 4.98575 0 0. 9.
 -11 -1 0 0 0 0 0 0 -4.99975 4.99975 0 0. 9.
 15 1 1 2 0 0 -3.09275 -0.538876 -3.45871 4.99759 1.7768 0. 1
 -15 1 1 2 0 0 3.09275 0.538876 3.44471 4.98791 1.7768 0. -1
</event>
<event>
 4 80 1 -1 -1 -1
 11 -1 0 0 0 0 0 0 3.60874 3.60874 0 0. 9.
 -11 -1 0 0 0 0 0 0 -5 5 0 0. 9.
 15 1 1 2 0 0 -0.493391 -2.89687 -3.22907 4.7138 1.7768 0. -1
 -15 1 1 2 0 0 0.493391 2.89687 1.83781 3.89494 1.7768 0. 1
</event>
<event>
 4 80 1 -1 -1 -1
 11 -1 0 0 0 0 0 0 5 5 0 0. 9.
 -11 -1 0 0 0 0 0 0 -5 5 0 0. 9.
 15 1 1 2 0 0 0.0683714 4.25259 -1.93729 5 1.7768 0. -1
 -15 1 1 2 0 0 -0.0683714 -4.25259 1.93729 5 1.7768 0. 1
</event>
<event>
 4 80 1 -1 -1 -1
 11 -1 0 0 0 0 0 0 5 5 0 0. 9.
 -11 -1 0 0 0 0 0 0 -5 5 0 0. 9.
 15 1 1 2 0 0 -2.22722 -1.86504 3.66106 5 1.7768 0. 1
 -15 1 1 2 0 0 2.22722 1.86504 -3.66106 5 1.7768 0. -1
</event>
<event>
 4 80 1 -1 -1 -1
 11 -1 0 0 0 0 0 0 5 5 0 0. 9.
 -11 -1 0 0 0 0 0 0 -5 5 0 0. 9.
 15 1 1 2 0 0 0.754192 3.06797 3.44399 5 1.7768 0. -1
 -15 1 1 2 0 0 -0.754192 -3.06797 -3.44398 5 1.7768 0. 1
</event>
<event>
 4 80 1 -1 -1 -1
 11 -1 0 0 0 0 0 0 4.54014 4.54014 0 0. 9.
 -11 -1 0 0 0 0 0 0 -4.99998 4.99998 0 0. 9.
 15 1 1 2 0 0 -3.33402 1.7582 -2.54257 4.88153 1.7768 0. 1
 -15 1 1 2 0 0 3.33402 -1.7582 2.08273 4.65859 1.7768 0. -1
</event>
<event>
 4 80 1 -1 -1 -1
 11 -1 0 0 0 0 0 0 4.99995 4.99995 0 0. 9.
 -11 -1 0 0 0 0 0 0 -3.15114 3.15114 0 0. 9.
 15 1 1 2 0 0 -0.54496 2.62755 -1.46087 3.53453 1.7768 0. 1
 -15 1 1 2 0 0 0.54496 -2.62755 3.30968 4.61657 1.7768 0. -1
</event>
<event>
 4 80 1 -1 -1 -1
 11 -1 0 0 0 0 0 0 5 5 0 0. 9.
 -11 -1 0 0 0 0 0 0 -2.58546 2.58546 0 0. 9.
 15 1 1 2 0 0 1.44039 0.938815 3.96075 4.66919 1.7768 0. -1
 -15 1 1 2 0 0 -1.44039 -0.938815 -1.54621 2.91627 1.7768 0. 1
</event>
<event>
 4 80 1 -1 -1 -1
 11 -1 0 0 0 0 0 0 4.99716 4.99716 0 0. 9.
 -11 -1 0 0 0 0 0 0 -5 5 0 0. 9.
 15 1 1 2 0 0 3.47661 -0.161288 3.11551 4.9977 1.7768 0. -1
 -15 1 1 2 0 0 -3.47661 0.161288 -3.11834 4.99947 1.7768 0. 1
</event>
<event>
 4 80 1 -1 -1 -1
 11 -1 0 0 0 0 0 0 5 5 0 0. 9.
 -11 -1 0 0 0 0 0 0 -4.99992 4.99992 0 0. 9.
 15 1 1 2 0 0 0.871848 -4.13184 2.00246 4.99998 1.7768 0. 1
 -15 1 1 2 0 0 -0.871848 4.13184 -2.00238 4.99994 1.7768 0. -1
</event>
<event>
 4 80 1 -1 -1 -1
 11 -1 0 0 0 0 0 0 4.28676 4.28676 0 0. 9.
 -11 -1 0 0 0 0 0 0 -4.96941 4.96941 0 0. 9.
 15 1 1 2 0 0 1.63522 1.06624 3.45505 4.3481 1.7768 0. 1
 -15 1 1 2 0 0 -1.63522 -1.06624 -4.13771 4.90807 1.7768 0. -1
</event>
<event>
 4 80 1 -1 -1 -1
 11 -1 0 0 0 0 0 0 4.99997 4.99997 0 0. 9.
 -11 -1 0 0 0 0 0 0 -5 5 0 0. 9.
 15 1 1 2 0 0 -0.107406 0.988017 -4.56668 5 1.7768 0. 1
 -15 1 1 2 0 0 0.107406 -0.988017 4.56665 4.99997 1.7768 0. -1
</event>
<event>
 4 80 1 -1 -1 -1
 11 -1 0 0 0 0 0 0 4.99993 4.99993 0 0. 9.
 -11 -1 0 0 0 0 0 0 -4.99465 4.99465 0 0. 9.
 15 1 1 2 0 0 1.36101 -4.29101 1.24767 4.99795 1.7768 0. -1
 -15 1 1 2 0 0 -1.36101 4.29101 -1.2424 4.99663 1.7768 0. 1
</event>
<event>
 4 80 1 -1 -1 -1
 11 -1 0 0 0 0 0 0 4.97678 4.97678 0 0. 9.
 -11 -1 0 0 0 0 0 0 -5 5 0 0. 9.
 15 1 1 2 0 0 -0.602282 -0.8754 4.5268 4.97782 1.7768 0. -1
 -15 1 1 2 0 0 0.602282 0.8754 -4.55003 4.99895 1.7768 0. 1
</event>
<event>
 4 80 1 -1 -1 -1
 11 -1 0 0 0 0 0 0 4.99992 4.99992 0 0. 9.
 -11 -1 0 0 0 0 0 0 -5 5 0 0. 9.
 15 1 1 2 0 0 -0.592014 -1.52203 4.37886 4.99992 1.7768 0. 1
 -15 1 1 2 0 0 0.592014 1.52203 -4.37894 4.99999 1.7768 0. -1
</event>
<event>
 4 80 1 -1 -1 -1
 11 -1 0 0 0 0 0 0 5 5 0 0. 9.
 -11 -1 0 0 0 0 0 0 -5 5 0 0. 9.
 15 1 1 2 0 0 -1.18483 -3.67212 -2.63704 5 1.7768 0. 1
 -15 1 1 2 0 0 1.18483 3.67212 2.63704 5 1.7768 0. -1
</event>
<event>
 4 80 1 -1 -1 -1
 11 -1 0 0 0 0 0 0 4.99999 4.99999 0 0. 9.
 -11 -1 0 0 0 0 0 0 -5 5 0 0. 9.
 15 1 1 2 0 0 1.54318 -1.41145 -4.17955 5 1.7768 0. 1
 -15 1 1 2 0 0 -1.54318 1.41145 4.17954 4.99999 1.7768 0. -1
</event>
<event>
 4 80 1 -1 -1 -1
 11 -1 0 0 0 0 0 0 4.98097 4.98097 0 0. 9.
 -11 -1 0 0 0 0 0 0 -5 5 0 0. 9.
 15 1 1 2 0 0 3.70098 2.76669 0.619196 4.98929 1.7768 0. -1
 -15 1 1 2 0 0 -3.70098 -2.76669 -0.638227 4.99168 1.7768 0. 1
</event>
<event>
 4 80 1 -1 -1 -1
 11 -1 0 0 0 0 0 0 5 5 0 0. 9.
 -11 -1 0 0 0 0 0 0 -4.99984 4.99984 0 0. 9.
 15 1 1 2 0 0 -3.52227 -2.19318 -2.1505 4.99988 1.7768 0. 1
 -15 1 1 2 0 0 3.52227 2.19318 2.15067 4.99995 1.7768 0. -1
</event>
<event>
 4 80 1 -1 -1 -1
 11 -1 0 0 0 0 0 0 4.99942 4.99942 0 0. 9.
 -11 -1 0 0 0 0 0 0 -4.99768 4.99768 0 0. 9.
 15 1 1 2 0 0 -2.59793 2.78464 -2.70546 4.99808 1.7768 0. -1
 -15 1 1 2 0 0 2.59793 -2.78464 2.70721 4.99902 1.7768 0. 1
</event>
<event>
 4 80 1 -1 -1 -1
 11 -1 0 0 0 0 0 0 5 5 0 0. 9.
 -11 -1 0 0 0 0 0 0 -5 5 0 0. 9.
 15 1 1 2 0 0 -1.49298 0.991563 4.31626 5 1.7768 0. -1
 -15 1 1 2 0 0 1.49298 -0.991563 -4.31626 5 1.7768 0. 1
</event>
<event>
 4 80 1 -1 -1 -1
 11 -1 0 0 0 0 0 0 4.9896 4.9896 0 0. 9.
 -11 -1 0 0 0 0 0 0 -4.99913 4.99913 0 0. 9.
 15 1 1 2 0 0 4.14428 -1.20853 -1.77968 4.99606 1.7768 0. -1
 -15 1 1 2 0 0 -4.14428 1.20853 1.77015 4.99267 1.7768 0. 1
</event>
<event>
 4 80 1 -1 -1 -1
 11 -1 0 0 0 0 0 0 5 5 0 0. 9.
 -11 -1 0 0 0 0 0 0 -5 5 0 0. 9.
 15 1 1 2 0 0 1.68552 2.62801 -3.47776 5 1.7768 0. 1
 -15 1 1 2 0 0 -1.68552 -2.62801 3.47776 5 1.7768 0. -1
</event>
<event>
 4 80 1 -1 -1 -1
 11 -1 0 0 0 0 0 0 5 5 0 0. 9.
 -11 -1 0 0 0 0 0 0 -4.99966 4.99966 0 0. 9.
 15 1 1 2 0 0 -0.533922 4.21231 1.9526 4.9999 1.7768 0. 1
 -15 1 1 2 0 0 0.533922 -4.21231 -1.95226 4.99977 1.7768 0. -1
</event>
<event>
 4 80 1 -1 -1 -1
 11 -1 0 0 0 0 0 0 5 5 0 0. 9.
 -11 -1 0 0 0 0 0 0 -4.98375 4.98375 0 0. 9.
 15 1 1 2 0 0 -1.0139 -0.0825001 -4.54449 4.98447 1.7768 0. 1
 -15 1 1 2 0 0 1.0139 0.0825001 4.56074 4.99929 1.7768 0. -1
</event>
<event>
 4 80 1 -1 -1 -1
 11 -1 0 0 0 0 0 0 4.51792 4.51792 0 0. 9.
 -11 -1 0 0 0 0 0 0 -5 5 0 0. 9.
 15 1 1 2 0 0 -1.16153 -2.57192 -3.63183 4.9307 1.7768 0. 1
 -15 1 1 2 0 0 1.16153 2.57192 3.14974 4.58721 1.7768 0. -1
</event>
<event>
 4 80 1 -1 -1 -1
 11 -1 0 0 0 0 0 0 5 5 0 0. 9.
 -11 -1 0 0 0 0 0 0 -4.99997 4.99997 0 0. 9.
 15 1 1 2 0 0 -1.91734 2.38606 3.53168 5 1.7768 0. 1
 -15 1 1 2 0 0 1.91734 -2.38606 -3.53165 4.99997 1.7768 0. -1
</event>
<event>
 4 80 1 -1 -1 -1
 11 -1 0 0 0 0 0 0 4.33839 4.33839 0 0. 9.
 -11 -1 0 0 0 0 0 0 -3.42904 3.42904 0 0. 9.
 15 1 1 2 0 0 0.376072 -0.405254 3.85639 4.28196 1.7768 0. 1
 -15 1 1 2 0 0 -0.376072 0.405254 -2.94705 3.48547 1.7768 0. -1
</event>
<event>
 4 80 1 -1 -1 -1
 11 -1 0 0 0 0 0 0 5 5 0 0. 9.
 -11 -1 0 0 0 0 0 0 -2.28993 2.28993 0 0. 9.
 15 1 1 2 0 0 -2.72324 0.735532 1.97839 3.8767 1.7768 0. 1
 -15 1 1 2 0 0 2.72324 -0.735532 0.731689 3.41323 1.7768 0. -1
</event>
<event>
 4 80 1 -1 -1 -1
 11 -1 0 0 0 0 0 0 4.79741 4.79741 0 0. 9.
 -11 -1 0 0 0 0 0 0 -5 5 0 0. 9.
 15 1 1 2 0 0 1.81425 -0.397395 4.06851 4.81248 1.7768 0. 1
 -15 1 1 2 0 0 -1.81425 0.397395 -4.27111 4.98493 1.7768 0. -1
</event>
<event>
 4 80 1 -1 -1 -1
 11 -1 0 0 0 0 0 0 5 5 0 0. 9.
 -11 -1 0 0 0 0 0 0 -5 5 0 0. 9.
 15 1 1 2 0 0 -0.40639 1.97472 4.21635 5 1.7768 0. -1
 -15 1 1 2 0 0 0.40639 -1.97472 -4.21634 5 1.7768 0. 1
</event>
<event>
 4 80 1 -1 -1 -1
 11 -1 0 0 0 0 0 0 5 5 0 0. 9.
 -11 -1 0 0 0 0 0 0 -5 5 0 0. 9.
 15 1 1 2 0 0 -3.54923 -0.203644 -3.03377 5 1.7768 0. -1
 -15 1 1 2 0 0 3.54923 0.203644 3.03377 5 1.7768 0. 1
</event>
<event>
 4 80 1 -1 -1 -1
 11 -1 0 0 0 0 0 0 4.99998 4.99998 0 0. 9.
 -11 -1 0 0 0 0 0 0 -1.05347 1.05347 0 0. 9.
 15 1 1 2 0 0 -0.466176 0.962996 3.26872 3.8713 1.7768 0. 1
 -15 1 1 2 0 0 0.466176 -0.962996 0.677786 2.18216 1.7768 0. -1
</event>
<event>
 4 80 1 -1 -1 -1
 11 -1 0 0 0 0 0 0 5 5 0 0. 9.
 -11 -1 0 0 0 0 0 0 -5 5 0 0. 9.
 15 1 1 2 0 0 -3.05675 -2.48848 2.51119 5 1.7768 0. 1
 -15 1 1 2 0 0 3.05675 2.48848 -2.51119 5 1.7768 0. -1
</event>
<event>
 4 80 1 -1 -1 -1
 11 -1 0 0 0 0 0 0 4.99994 4.99994 0 0. 9.
 -11 -1 0 0 0 0 0 0 -4.98419 4.98419 0 0. 9.
 15 1 1 2 0 0 -1.74981 2.83698 -3.25597 4.98692 1.7768 0. -1
 -15 1 1 2 0 0 1.74981 -2.83698 3.27172 4.99721 1.7768 0. 1
</event>
<event>
 4 80 1 -1 -1 -1
 11 -1 0 0 0 0 0 0 4.99998 4.99998 0 0. 9.
 -11 -1 0 0 0 0 0 0 -5 5 0 0. 9.
 15 1 1 2 0 0 -3.72886 -0.152953 2.81323 4.99998 1.7768 0. 1
 -15 1 1 2 0 0 3.72886 0.152953 -2.81325 4.99999 1.7768 0. -1
</event>
<event>
 4 80 1 -1 -1 -1
 11 -1 0 0 0 0 0 0 5 5 0 0. 9.
 -11 -1 0 0 0 0 0 0 -2.04246 2.04246 0 0. 9.
 15 1 1 2 0 0 -1.55631 -0.628912 -0.789305 2.56873 1.7768 0. -1
 -15 1 1 2 0 0 1.55631 0.628912 3.74685 4.47373 1.7768 0. 1
</event>
<event>
 4 80 1 -1 -1 -1
 11 -1 0 0 0 0 0 0 5 5 0 0. 9.
 -11 -1 0 0 0 0 0 0 -4.97866 4.97866 0 0. 9.
 15 1 1 2 0 0 -0.459365 2.42828 -3.94257 4.98088 1.7768 0. 1
 -15 1 1 2 0 0 0.459365 -2.42828 3.9639 4.99778 1.7768 0. -1
</event>
<event>
 4 80 1 -1 -1 -1
 11 -1 0 0 0 0 0 0 4.99168 4.99168 0 0. 9.
 -11 -1 0 0 0 0 0 0 -5 5 0 0. 9.
 15 1 1 2 0 0 -0.135657 -2.54697 -3.91507 4.9991 1.7768 0. -1
 -15 1 1 2 0 0 0.135657 2.54697 3.90675 4.99258 1.7768 0. 1
</event>
<event>
 4 80 1 -1 -1 -1
 11 -1 0 0 0 0 0 0 4.99999 4.99999 0 0. 9.
 -11 -1 0 0 0 0 0 0 -5 5 0 0. 9.
 15 1 1 2 0 0 -0.443887 4.3599 -1.62373 5 1.7768 0. 1
 -15 1 1 2 0 0 0.443887 -4.3599 1.62372 4.99999 1.7768 0. -1
</event>
<event>
 4 80 1 -1 -1 -1
 11 -1 0 0 0 0 0 0 4.99999 4.99999 0 0. 9.
 -11 -1 0 0 0 0 0 0 -5 5 0 0. 9.
 15 1 1 2 0 0 3.24923 0.313054 -3.34466 5 1.7768 0. -1
 -15 1 1 2 0 0 -3.24923 -0.313054 3.34465 5 1.7768 0. 1
</event>
<event>
 4 80 1 -1 -1 -1
 11 -1 0 0 0 0 0 0 5 5 0 0. 9.
 -11 -1 0 0 0 0 0 0 -5 5 0 0. 9.
 15 1 1 2 0 0 -1.61867 0.573822 -4.3466 5 1.7768 0. 1
 -15 1 1 2 0 0 1.61867 -0.573822 4.3466 5 1.7768 0. -1
</event>
<event>
 4 80 1 -1 -1 -1
 11 -1 0 0 0 0 0 0 5 5 0 0. 9.
 -11 -1 0 0 0 0 0 0 -5 5 0 0. 9.
 15 1 1 2 0 0 2.12953 -1.76918 3.76529 5 1.7768 0. -1
 -15 1 1 2 0 0 -2.12953 1.76918 -3.76529 5 1.7768 0. 1
</event>
<event>
 4 80 1 -1 -1 -1
 11 -1 0 0 0 0 0 0 5 5 0 0. 9.
 -11 -1 0 0 0 0 0 0 -5 5 0 0. 9.
 15 1 1 2 0 0 1.97722 2.76725 -3.2055 5 1.7768 0. -1
 -15 1 1 2 0 0 -1.97722 -2.76725 3.2055 5 1.7768 0. 1
</event>
<event>
 4 80 1 -1 -1 -1
 11 -1 0 0 0 0 0 0 5 5 0 0. 9.
 -11 -1 0 0 0 0 0 0 -4.8949 4.8949 0 0. 9.
 15 1 1 2 0 0 0.342729 4.31056 1.67078 4.96464 1.7768 0. 1
 -15 1 1 2 0 0 -0.342729 -4.31056 -1.56568 4.93026 1.7768 0. -1
</event>
<event>
 4 80 1 -1 -1 -1
 11 -1 0 0 0 0 0 0 4.99997 4.99997 0 0. 9.
 -11 -1 0 0 0 0 0 0 -5 5 0 0. 9.
 15 1 1 2 0 0 0.410046 -2.91064 3.63346 4.99997 1.7768 0. 1
 -15 1 1 2 0 0 -0.410046 2.91064 -3.63349 5 1.7768 0. -1
</event>
<event>
 4 80 1 -1 -1 -1
 11 -1 0 0 0 0 0 0 4.99172 4.99172 0 0. 9.
 -11 -1 0 0 0 0 0 0 -5 5 0 0. 9.
 15 1 1 2 0 0 2.93969 2.99171 -2.05566 4.99756 1.7768 0. 1
 -15 1 1 2 0 0 -2.93969 -2.99171 2.04738 4.99416 1.7768 0. -1
</event>
<event>
 4 80 1 -1 -1 -1
 11 -1 0 0 0 0 0 0 5 5 0 0. 9.
 -11 -1 0 0 0 0 0 0 -5 5 0 0. 9.
 15 1 1 2 0 0 0.68994 2.42026 3.93809 5 1.7768 0. 1
 -15 1 1 2 0 0 -0.68994 -2.42026 -3.93809 5 1.7768 0. -1
</event>
<event>
 4 80 1 -1 -1 -1
 11 -1 0 0 0 0 0 0 5 5 0 0. 9.
 -11 -1 0 0 0 0 0 0 -4.99264 4.99264 0 0. 9.
 15 1 1 2 0 0 -2.09255 -3.76962 1.79718 4.99764 1.7768 0. -1
 -15 1 1 2 0 0 2.09255 3.76962 -1.78982 4.995 1.7768 0. 1
</event>
<event>
 4 80 1 -1 -1 -1
 11 -1 0 0 0 0 0 0 5 5 0 0. 9.
 -11 -1 0 0 0 0 0 0 -4.99781 4.99781 0 0. 9.
 15 1 1 2 0 0 -2.9401 1.74875 -3.18152 4.99821 1.7768 0. -1
 -15 1 1 2 0 0 2.9401 -1.74875 3.18371 4.9996 1.7768 0. 1
</event>
<event>
 4 80 1 -1 -1 -1
 11 -1 0 0 0 0 0 0 4.65311 4.65311 0 0. 9.
 -11 -1 0 0 0 0 0 0 -5 5 0 0. 9.
 15 1 1 2 0 0 -3.05814 -0.305574 3.09397 4.70913 1.7768 0. -1
 -15 1 1 2 0 0 3.05814 0.305574 -3.44086 4.94397 1.7768 0. 1
</event>
<event>
 4 80 1 -1 -1 -1
 11 -1 0 0 0 0 0 0 5 5 0 0. 9.
 -11 -1 0 0 0 0 0 0 -5 5 0 0. 9.
 15 1 1 2 0 0 0.921891 0.606417 4.54144 5 1.7768 0. -1
 -15 1 1 2 0 0 -0.921891 -0.606417 -4.54144 5 1.7768 0. 1
</event>
<event>
 4 80 1 -1 -1 -1
 11 -1 0 0 0 0 0 0 4.91301 4.91301 0 0. 9.
 -11 -1 0 0 0 0 0 0 -4.95275 4.95275 0 0. 9.
 15 1 1 2 0 0 -1.26702 -2.62186 -3.583 4.94723 1.7768 0. 1
 -15 1 1 2 0 0 1.26702 2.62186 3.54327 4.91853 1.7768 0. -1
</event>
<event>
 4 80 1 -1 -1 -1
 11 -1 0 0 0 0 0 0 5 5 0 0. 9.
 -11 -1 0 0 0 0 0 0 -4.9357 4.9357 0 0. 9.
 15 1 1 2 0 0 3.1042 3.21276 1.28234 4.97594 1.7768 0. -1
 -15 1 1 2 0 0 -3.1042 -3.21276 -1.21805 4.95976 1.7768 0. 1
</event>
<event>
 4 80 1 -1 -1 -1
 11 -1 0 0 0 0 0 0 4.99999 4.99999 0 0. 9.
 -11 -1 0 0 0 0 0 0 -5 5 0 0. 9.
 15 1 1 2 0 0 -3.87829 -2.05634 1.60391 5 1.7768 0. 1
 -15 1 1 2 0 0 3.87829 2.05634 -1.60392 5 1.7768 0. -1
</event>
<event>
 4 80 1 -1 -1 -1
 11 -1 0 0 0 0 0 0 4.99999 4.99999 0 0. 9.
 -11 -1 0 0 0 0 0 0 -4.99991 4.99991 0 0. 9.
 15 1 1 2 0 0 -3.88527 -2.27991 -1.24432 4.99994 1.7768 0. 1
 -15 1 1 2 0 0 3.88527 2.27991 1.2444 4.99996 1.7768 0. -1
</event>
<event>
 4 80 1 -1 -1 -1
 11 -1 0 0 0 0 0 0 5 5 0 0. 9.
 -11 -1 0 0 0 0 0 0 -5 5 0 0. 9.
 15 1 1 2 0 0 -0.550717 -3.84948 2.59239 5 1.7768 0. 1
 -15 1 1 2 0 0 0.550717 3.84948 -2.59239 5 1.7768 0. -1
</event>
<event>
 4 80 1 -1 -1 -1
 11 -1 0 0 0 0 0 0 4.84218 4.84218 0 0. 9.
 -11 -1 0 0 0 0 0 0 -5 5 0 0. 9.
 15 1 1 2 0 0 -0.366847 -1.9834 4.04287 4.85499 1.7768 0. 1
 -15 1 1 2 0 0 0.366847 1.9834 -4.20069 4.98718 1.7768 0. -1
</event>
<event>
 4 80 1 -1 -1 -1
 11 -1 0 0 0 0 0 0 4.99999 4.99999 0 0. 9.
 -11 -1 0 0 0 0 0 0 -4.99819 4.99819 0 0. 9.
 15 1 1 2 0 0 -4.54555 -0.921958 -0.565826 4.99899 1.7768 0. 1
 -15 1 1 2 0 0 4.54555 0.921958 0.567619 4.99919 1.7768 0. -1
</event>
<event>
 4 80 1 -1 -1 -1
 11 -1 0 0 0 0 0 0 5 5 0 0. 9.
 -11 -1 0 0 0 0 0 0 -4.97832 4.97832 0 0. 9.
 15 1 1 2 0 0 -0.652997 0.535414 -4.57402 4.9792 1.7768 0. -1
 -15 1 1 2 0 0 0.652997 -0.535414 4.5957 4.99912 1.7768 0. 1
</event>
<event>
 4 80 1 -1 -1 -1
 11 -1 0 0 0 0 0 0 5 5 0 0. 9.
 -11 -1 0 0 0 0 0 0 -5 5 0 0. 9.
 15 1 1 2 0 0 0.352442 3.6676 2.87519 5 1.7768 0. 1
 -15 1 1 2 0 0 -0.352442 -3.6676 -2.87519 5 1.7768 0. -1
</event>
<event>
 4 80 1 -1 -1 -1
 11 -1 0 0 0 0 0 0 5 5 0 0. 9.
 -11 -1 0 0 0 0 0 0 -5 5 0 0. 9.
 15 1 1 2 0 0 -2.13765 -3.01474 -2.86078 5 1.7768 0. -1
 -15 1 1 2 0 0 2.13765 3.01474 2.86078 5 1.7768 0. 1
</event>
<event>
 4 80 1 -1 -1 -1
 11 -1 0 0 0 0 0 0 4.72946 4.72946 0 0. 9.
 -11 -1 0 0 0 0 0 0 -5 5 0 0. 9.
 15 1 1 2 0 0 0.534954 3.14044 3.08172 4.77528 1.7768 0. 1
 -15 1 1 2 0 0 -0.534954 -3.14044 -3.35226 4.95418 1.7768 0. -1
</event>
<event>
 4 80 1 -1 -1 -1
 11 -1 0 0 0 0 0 0 4.99996 4.99996 0 0. 9.
 -11 -1 0 0 0 0 0 0 -5 5 0 0. 9.
 15 1 1 2 0 0 2.20233 -3.33984 -2.41606 4.99999 1.7768 0. -1
 -15 1 1 2 0 0 -2.20233 3.33984 2.41602 4.99997 1.7768 0. 1
</event>
<event>
 4 80 1 -1 -1 -1
 11 -1 0 0 0 0 0 0 5 5 0 0. 9.
 -11 -1 0 0 0 0 0 0 -4.9469 4.9469 0 0. 9.
 15 1 1 2 0 0 1.69931 2.09911 -3.75277 4.95328 1.7768 0. 1
 -15 1 1 2 0 0 -1.69931 -2.09911 3.80587 4.99363 1.7768 0. -1
</event>
<event>
 4 80 1 -1 -1 -1
 11 -1 0 0 0 0 0 0 4.41242 4.41242 0 0. 9.
 -11 -1 0 0 0 0 0 0 -5 5 0 0. 9.
 15 1 1 2 0 0 -0.570508 2.40326 -3.87895 4.93002 1.7768 0. -1
 -15 1 1 2 0 0 0.570508 -2.40326 3.29137 4.4824 1.7768 0. 1
</event>
<event>
 4 80 1 -1 -1 -1
 11 -1 0 0 0 0 0 0 5 5 0 0. 9.
 -11 -1 0 0 0 0 0 0 -5 5 0 0. 9.
 15 1 1 2 0 0 -2.50646 3.31546 2.13721 5 1.7768 0. -1
 -15 1 1 2 0 0 2.50646 -3.31546 -2.13721 5 1.7768 0. 1
</event>
<event>
 4 80 1 -1 -1 -1
 11 -1 0 0 0 0 0 0 4.95361 4.95361 0 0. 9.
 -11 -1 0 0 0 0 0 0 -5 5 0 0. 9.
 15 1 1 2 0 0 1.9365 2.74756 -3.23433 4.99177 1.7768 0. 1
 -15 1 1 2 0 0 -1.9365 -2.74756 3.18794 4.96184 1.7768 0. -1
</event>
<event>
 4 80 1 -1 -1 -1
 11 -1 0 0 0 0 0 0 5 5 0 0. 9.
 -11 -1 0 0 0 0 0 0 -5 5 0 0. 9.
 15 1 1 2 0 0 -4.21804 1.35396 1.48902 5 1.7768 0. -1
 -15 1 1 2 0 0 4.21804 -1.35396 -1.48902 5 1.7768 0. 1
</event>
<event>
 4 80 1 -1 -1 -1
 11 -1 0 0 0 0 0 0 5 5 0 0. 9.
 -11 -1 0 0 0 0 0 0 -5 5 0 0. 9.
 15 1 1 2 0 0 0.105994 -4.46581 1.3739 5 1.7768 0. -1
 -15 1 1 2 0 0 -0.105994 4.46581 -1.3739 5 1.7768 0. 1
</event>
<event>
 4 80 1 -1 -1 -1
 11 -1 0 0 0 0 0 0 5 5 0 0. 9.
 -11 -1 0 0 0 0 0 0 -5 5 0 0. 9.
 15 1 1 2 0 0 -3.3015 -2.85091 1.67769 5 1.7768 0. 1
 -15 1 1 2 0 0 3.3015 2.85091 -1.67769 5 1.7768 0. -1
</event>
<event>
 4 80 1 -1 -1 -1
 11 -1 0 0 0 0 0 0 4.75047 4.75047 0 0. 9.
 -11 -1 0 0 0 0 0 0 -5 5 0 0. 9.
 15 1 1 2 0 0 3.01253 2.83649 1.7396 4.82752 1.7768 0. 1
 -15 1 1 2 0 0 -3.01253 -2.83649 -1.98913 4.92295 1.7768 0. -1
</event>
<event>
 4 80 1 -1 -1 -1
 11 -1 0 0 0 0 0 0 5 5 0 0. 9.
 -11 -1 0 0 0 0 0 0 -5 5 0 0. 9.
 15 1 1 2 0 0 -0.122782 4.6704 0.120767 5 1.7768 0. -1
 -15 1 1 2 0 0 0.122782 -4.6704 -0.120767 5 1.7768 0. 1
</event>
<event>
 4 80 1 -1 -1 -1
 11 -1 0 0 0 0 0 0 5 5 0 0. 9.
 -11 -1 0 0 0 0 0 0 -4.94211 4.94211 0 0. 9.
 15 1 1 2 0 0 2.87424 3.60326 0.583997 4.97428 1.7768 0. 1
 -15 1 1 2 0 0 -2.87424 -3.60326 -0.526111 4.96782 1.7768 0. -1
</event>
<event>
 4 80 1 -1 -1 -1
 11 -1 0 0 0 0 0 0 5 5 0 0. 9.
 -11 -1 0 0 0 0 0 0 -2.41663 2.41663 0 0. 9.
 15 1 1 2 0 0 -1.8526 2.18377 0.383677 3.39203 1.7768 0. -1
 -15 1 1 2 0 0 1.8526 -2.18377 2.1997 4.02459 1.7768 0. 1
</event>
<event>
 4 80 1 -1 -1 -1
 11 -1 0 0 0 0 0 0 4.73847 4.73847 0 0. 9.
 -11 -1 0 0 0 0 0 0 -4.37961 4.37961 0 0. 9.
 15 1 1 2 0 0 -1.24161 -3.87827 1.18636 4.59867 1.7768 0. -1
 -15 1 1 2 0 0 1.24161 3.87827 -0.827498 4.51941 1.7768 0. 1
</event>
<event>
 4 80 1 -1 -1 -1
 11 -1 0 0 0 0 0 0 5 5 0 0. 9.
 -11 -1 0 0 0 0 0 0 -5 5 0 0. 9.
 15 1 1 2 0 0 -3.59234 -2.66104 1.36244 5 1.7768 0. -1
 -15 1 1 2 0 0 3.59234 2.66104 -1.36244 5 1.7768 0. 1
</event>
<event>
 4 80 1 -1 -1 -1
 11 -1 0 0 0 0 0 0 5 5 0 0. 9.
 -11 -1 0 0 0 0 0 0 -5 5 0 0. 9.
 15 1 1 2 0 0 3.46274 -0.0932993 3.13735 5 1.7768 0. 1
 -15 1 1 2 0 0 -3.46274 0.0932993 -3.13735 5 1.7768 0. -1
</event>
<event>
 4 80 1 -1 -1 -1
 11 -1 0 0 0 0 0 0 5 5 0 0. 9.
 -11 -1 0 0 0 0 0 0 -5 5 0 0. 9.
 15 1 1 2 0 0 -2.66719 -0.658851 -3.78078 5 1.7768 0. -1
 -15 1 1 2 0 0 2.66719 0.658851 3.78078 5 1.7768 0. 1
</event>
<event>
 4 80 1 -1 -1 -1
 11 -1 0 0 0 0 0 0 4.98812 4.98812 0 0. 9.
 -11 -1 0 0 0 0 0 0 -4.99996 4.99996 0 0. 9.
 15 1 1 2 0 0 2.02118 1.16486 -4.04828 4.99884 1.7768 0. -1
 -15 1 1 2 0 0 -2.02118 -1.16486 4.03644 4.98925 1.7768 0. 1
</event>
<event>
 4 80 1 -1 -1 -1
 11 -1 0 0 0 0 0 0 5 5 0 0. 9.
 -11 -1 0 0 0 0 0 0 -4.99906 4.99906 0 0. 9.
 15 1 1 2 0 0 -1.15418 -2.01903 -4.05279 4.99915 1.7768 0. -1
 -15 1 1 2 0 0 1.15418 2.01903 4.05373 4.99991 1.7768 0. 1
</event>
<event>
 4 80 1 -1 -1 -1
 11 -1 0 0 0 0 0 0 4.98551 4.98551 0 0. 9.
 -11 -1 0 0 0 0 0 0 -3.1734 3.1734 0 0. 9.
 15 1 1 2 0 0 -1.15858 -1.55433 -2.15452 3.3997 1.7768 0. -1
 -15 1 1 2 0 0 1.15858 1.55433 3.96663 4.75921 1.7768 0. 1
</event>
<event>
 4 80 1 -1 -1 -1
 11 -1 0 0 0 0 0 0 5 5 0 0. 9.
 -11 -1 0 0 0 0 0 0 -4.99427 4.99427 0 0. 9.
 15 1 1 2 0 0 -0.572366 2.02808 -4.16522 4.99475 1.7768 0. -1
 -15 1 1 2 0 0 0.572366 -2.02808 4.17095 4.99952 1.7768 0. 1
</event>
<event>
 4 80 1 -1 -1 -1
 11 -1 0 0 0 0 0 0 3.45965 3.45965 0 0. 9.
 -11 -1 0 0 0 0 0 0 -5 5 0 0. 9.
 15 1 1 2 0 0 -0.615469 -0.838643 -4.44525 4.89899 1.7768 0. -1
 -15 1 1 2 0 0 0.615469 0.838643 2.9049 3.56066 1.7768 0. 1
</event>
<event>
 4 80 1 -1 -1 -1
 11 -1 0 0 0 0 0 0 4.99997 4.99997 0 0. 9.
 -11 -1 0 0 0 0 0 0 -5 5 0 0. 9.
 15 1 1 2 0 0 3.46596 0.268797 3.1236 4.99998 1.7768 0. -1
 -15 1 1 2 0 0 -3.46596 -0.268797 -3.12363 5 1.7768 0. 1
</event>
<event>
 4 80 1 -1 -1 -1
 11 -1 0 0 0 0 0 0 4.99999 4.99999 0 0. 9.
 -11 -1 0 0 0 0 0 0 -5 5 0 0. 9.
 15 1 1 2 0 0 3.43369 -1.02368 3.00067 5 1.7768 0. 1
 -15 1 1 2 0 0 -3.43369 1.02368 -3.00068 5 1.7768 0. -1
</event>
<event>
 4 80 1 -1 -1 -1
 11 -1 0 0 0 0 0 0 4.99999 4.99999 0 0. 9.
 -11 -1 0 0 0 0 0 0 -4.86497 4.86497 0 0. 9.
 15 1 1 2 0 0 1.51312 -2.39494 3.69301 4.9821 1.7768 0. 1
 -15 1 1 2 0 0 -1.51312 2.39494 -3.55799 4.88286 1.7768 0. -1
</event>
<event>
 4 80 1 -1 -1 -1
 11 -1 0 0 0 0 0 0 4.98746 4.98746 0 0. 9.
 -11 -1 0 0 0 0 0 0 -4.99484 4.99484 0 0. 9.
 15 1 1 2 0 0 -3.23146 3.35973 -0.157671 4.99126 1.7768 0. -1
 -15 1 1 2 0 0 3.23146 -3.35973 0.150282 4.99104 1.7768 0. 1
</event>
<event>
 4 80 1 -1 -1 -1
 11 -1 0 0 0 0 0 0 4.07947 4.07947 0 0. 9.
 -11 -1 0 0 0 0 0 0 -5 5 0 0. 9.
 15 1 1 2 0 0 0.415264 -0.717082 -4.54987 4.95436 1.7768 0. -1
 -15 1 1 2 0 0 -0.415264 0.717082 3.62934 4.12511 1.7768 0. 1
</event>
<event>
 4 80 1 -1 -1 -1
 11 -1 0 0 0 0 0 0 4.98027 4.98027 0 0. 9.
 -11 -1 0 0 0 0 0 0 -3.70242 3.70242 0 0. 9.
 15 1 1 2 0 0 -2.60391 -2.24164 -1.24601 4.06393 1.7768 0. -1
 -15 1 1 2 0 0 2.60391 2.24164 2.52386 4.61875 1.7768 0. 1
</event>
<event>
 4 80 1 -1 -1 -1
 11 -1 0 0 0 0 0 0 5 5 0 0. 9.
 -11 -1 0 0 0 0 0 0 -4.84463 4.84463 0 0. 9.
 15 1 1 2 0 0 4.11482 1.6091 1.3206 4.94193 1.7768 0. 1
 -15 1 1 2 0 0 -4.11482 -1.6091 -1.16523 4.9027 1.7768 0. -1
</event>
<event>
 4 80 1 -1 -1 -1
 11 -1 0 0 0 0 0 0 5 5 0 0. 9.
 -11 -1 0 0 0 0 0 0 -1.16561 1.16561 0 0. 9.
 15 1 1 2 0 0 -0.595089 0.716409 3.63185 4.14915 1.7768 0. 1
 -15 1 1 2 0 0 0.595089 -0.716409 0.202531 2.01646 1.7768 0. -1
</event>
<event>
 4 80 1 -1 -1 -1
 11 -1 0 0 0 0 0 0 4.9999 4.9999 0 0. 9.
 -11 -1 0 0 0 0 0 0 -5 5 0 0. 9.
 15 1 1 2 0 0 -1.61234 4.3674 0.409714 4.99995 1.7768 0. -1
 -15 1 1 2 0 0 1.61234 -4.3674 -0.409813 4.99995 1.7768 0. 1
</event>
<event>
 4 80 1 -1 -1 -1
 11 -1 0 0 0 0 0 0 5 5 0 0. 9.
 -11 -1 0 0 0 0 0 0 -4.99975 4.99975 0 0. 9.
 15 1 1 2 0 0 -2.62813 1.52915 -3.54891 4.99979 1.7768 0. 1
 -15 1 1 2 0 0 2.62813 -1.52915 3.54916 4.99996 1.7768 0. -1
</event>
<event>
 4 80 1 -1 -1 -1
 11 -1 0 0 0 0 0 0 4.99994 4.99994 0 0. 9.
 -11 -1 0 0 0 0 0 0 -4.9998 4.9998 0 0. 9.
 15 1 1 2 0 0 -2.62505 -2.74845 -2.71951 4.99983 1.7768 0. 1
 -15 1 1 2 0 0 2.62505 2.74845 2.71965 4.99991 1.7768 0. -1
</event>
<event>
 4 80 1 -1 -1 -1
 11 -1 0 0 0 0 0 0 1.38668 1.38668 0 0. 9.
 -11 -1 0 0 0 0 0 0 -5 5 0 0. 9.
 15 1 1 2 0 0 0.687228 -0.763745 0.193485 2.06174 1.7768 0. 1
 -15 1 1 2 0 0 -0.687228 0.763745 -3.80681 4.32494 1.7768 0. -1
</event>
<event>
 4 80 1 -1 -1 -1
 11 -1 0 0 0 0 0 0 4.98513 4.98513 0 0. 9.
 -11 -1 0 0 0 0 0 0 -5 5 0 0. 9.
 15 1 1 2 0 0 -0.686304 1.45608 -4.38656 4.99909 1.7768 0. 1
 -15 1 1 2 0 0 0.686304 -1.45608 4.37169 4.98604 1.7768 0. -1
</event>
<event>
 4 80 1 -1 -1 -1
 11 -1 0 0 0 0 0 0 0.892063 0.892063 0 0. 9.
 -11 -1 0 0 0 0 0 0 -4.91762 4.91762 0 0. 9.
 15 1 1 2 0 0 0.671944 0.45368 -0.964069 2.17819 1.7768 0. -1
 -15 1 1 2 0 0 -0.671944 -0.45368 -3.06149 3.6315 1.7768 0. 1
</event>
<event>
 4 80 1 -1 -1 -1
 11 -1 0 0 0 0 0 0 4.9391 4.9391 0 0. 9.
 -11 -1 0 0 0 0 0 0 -0.733342 0.733342 0 0. 9.
 15 1 1 2 0 0 -0.331216 -0.066321 1.22096 2.18233 1.7768 0. 1
 -15 1 1 2 0 0 0.331216 0.066321 2.9848 3.49011 1.7768 0. -1
</event>
<event>
 4 80 1 -1 -1 -1
 11 -1 0 0 0 0 0 0 4.99995 4.99995 0 0. 9.
 -11 -1 0 0 0 0 0 0 -4.99439 4.99439 0 0. 9.
 15 1 1 2 0 0 -4.36787 -1.65252 -0.0666873 4.99713 1.7768 0. 1
 -15 1 1 2 0 0 4.36787 1.65252 0.0722531 4.99721 1.7768 0. -1
</event>
<event>
 4 80 1 -1 -1 -1
 11 -1 0 0 0 0 0 0 4.99895 4.99895 0 0. 9.
 -11 -1 0 0 0 0 0 0 -5 5 0 0. 9.
 15 1 1 2 0 0 -1.78713 1.85761 -3.89827 4.99988 1.7768 0. 1
 -15 1 1 2 0 0 1.78713 -1.85761 3.89723 4.99907 1.7768 0. -1
</event>
<event>
 4 80 1 -1 -1 -1
 11 -1 0 0 0 0 0 0 4.99975 4.99975 0 0. 9.
 -11 -1 0 0 0 0 0 0 -5 5 0 0. 9.
 15 1 1 2 0 0 -1.249 -2.32612 -3.85631 4.99997 1.7768 0. -1
 -15 1 1 2 0 0 1.249 2.32612 3.85606 4.99977 1.7768 0. 1
</event>
<event>
 4 80 1 -1 -1 -1
 11 -1 0 0 0 0 0 0 5 5 0 0. 9.
 -11 -1 0 0 0 0 0 0 -4.99338 4.99338 0 0. 9.
 15 1 1 2 0 0 3.97472 0.137497 -2.44452 4.99507 1.7768 0. -1
 -15 1 1 2 0 0 -3.97472 -0.137497 2.45114 4.99831 1.7768 0. 1
</event>
<event>
 4 80 1 -1 -1 -1
 11 -1 0 0 0 0 0 0 4.99979 4.99979 0 0. 9.
 -11 -1 0 0 0 0 0 0 -4.32691 4.32691 0 0. 9.
 15 1 1 2 0 0 -0.931 2.83681 3.43672 4.88702 1.7768 0. -1
 -15 1 1 2 0 0 0.931 -2.83681 -2.76383 4.43968 1.7768 0. 1
</event>
<event>
 4 80 1 -1 -1 -1
 11 -1 0 0 0 0 0 0 5 5 0 0. 9.
 -11 -1 0 0 0 0 0 0 -5 5 0 0. 9.
 15 1 1 2 0 0 2.67346 -3.1888 -2.12755 5 1.7768 0. 1
 -15 1 1 2 0 0 -2.67346 3.1888 2.12755 5 1.7768 0. -1
</event>
<event>
 4 80 1 -1 -1 -1
 11 -1 0 0 0 0 0 0 4.99971 4.99971 0 0. 9.
 -11 -1 0 0 0 0 0 0 -4.99997 4.99997 0 0. 9.
 15 1 1 2 0 0 0.855495 4.27127 1.6925 4.99979 1.7768 0. 1
 -15 1 1 2 0 0 -0.855495 -4.27127 -1.69276 4.99988 1.7768 0. -1
</event>
<event>
 4 80 1 -1 -1 -1
 11 -1 0 0 0 0 0 0 5 5 0 0. 9.
 -11 -1 0 0 0 0 0 0 -5 5 0 0. 9.
 15 1 1 2 0 0 0.722277 -1.08913 4.48713 5 1.7768 0. -1
 -15 1 1 2 0 0 -0.722277 1.08913 -4.48713 5 1.7768 0. 1
</event>
<event>
 4 80 1 -1 -1 -1
 11 -1 0 0 0 0 0 0 4.99995 4.99995 0 0. 9.
 -11 -1 0 0 0 0 0 0 -5 5 0 0. 9.
 15 1 1 2 0 0 2.04899 -4.07869 -1.00399 4.99998 1.7768 0. -1
 -15 1 1 2 0 0 -2.04899 4.07869 1.00394 4.99997 1.7768 0. 1
</event>
<event>
 4 80 1 -1 -1 -1
 11 -1 0 0 0 0 0 0 4.98311 4.98311 0 0. 9.
 -11 -1 0 0 0 0 0 0 -4.99998 4.99998 0 0. 9.
 15 1 1 2 0 0 1.60892 2.91913 -3.27153 4.99706 1.7768 0. -1
 -15 1 1 2 0 0 -1.60892 -2.91913 3.25465 4.98603 1.7768 0. 1
</event>
<event>
 4 80 1 -1 -1 -1
 11 -1 0 0 0 0 0 0 5 5 0 0. 9.
 -11 -1 0 0 0 0 0 0 -5 5 0 0. 9.
 15 1 1 2 0 0 4.49287 -1.23638 0.357453 5 1.7768 0. -1
 -15 1 1 2 0 0 -4.49287 1.23638 -0.357453 5 1.7768 0. 1
</event>
<event>
 4 80 1 -1 -1 -1
 11 -1 0 0 0 0 0 0 5 5 0 0. 9.
 -11 -1 0 0 0 0 0 0 -5 5 0 0. 9.
 15 1 1 2 0 0 -2.27215 3.19185 -2.54788 5 1.7768 0. 1
 -15 1 1 2 0 0 2.27215 -3.19185 2.54788 5 1.7768 0. -1
</event>
<event>
 4 80 1 -1 -1 -1
 11 -1 0 0 0 0 0 0 4.99786 4.99786 0 0. 9.
 -11 -1 0 0 0 0 0 0 -5 5 0 0. 9.
 15 1 1 2 0 0 2.74946 -0.464151 -3.75028 4.99973 1.7768 0. 1
 -15 1 1 2 0 0 -2.74946 0.464151 3.74814 4.99813 1.7768 0. -1
</event>
<event>
 4 80 1 -1 -1 -1
 11 -1 0 0 0 0 0 0 5 5 0 0. 9.
 -11 -1 0 0 0 0 0 0 -5 5 0 0. 9.
 15 1 1 2 0 0 4.30183 1.77815 0.41801 5 1.7768 0. 1
 -15 1 1 2 0 0 -4.30183 -1.77815 -0.41801 5 1.7768 0. -1
</event>
<event>
 4 80 1 -1 -1 -1
 11 -1 0 0 0 0 0 0 5 5 0 0. 9.
 -11 -1 0 0 0 0 0 0 -5 5 0 0. 9.
 15 1 1 2 0 0 3.76573 -0.614913 -2.69879 5 1.7768 0. 1
 -15 1 1 2 0 0 -3.76573 0.614913 2.69879 5 1.7768 0. -1
</event>
<event>
 4 80 1 -1 -1 -1
 11 -1 0 0 0 0 0 0 5 5 0 0. 9.
 -11 -1 0 0 0 0 0 0 -4.87628 4.87628 0 0. 9.
 15 1 1 2 0 0 -2.7392 3.144 -1.89679 4.9136 1.7768 0. -1
 -15 1 1 2 0 0 2.7392 -3.144 2.02051 4.96268 1.7768 0. 1
</event>
<event>
 4 80 1 -1 -1 -1
 11 -1 0 0 0 0 0 0 5 5 0 0. 9.
 -11 -1 0 0 0 0 0 0 -5 5 0 0. 9.
 15 1 1 2 0 0 -1.96293 4.00685 1.39081 5 1.7768 0. 1
 -15 1 1 2 0 0 1.96293 -4.00685 -1.39081 5 1.7768 0. -1
</event>
<event>
 4 80 1 -1 -1 -1
 11 -1 0 0 0 0 0 0 1.98273 1.98273 0 0. 9.
 -11 -1 0 0 0 0 0 0 -5 5 0 0. 9.
 15 1 1 2 0 0 1.76743 0.226716 -3.60691 4.39804 1.7768 0. -1
 -15 1 1 2 0 0 -1.76743 -0.226716 0.589636 2.58469 1.7768 0. 1
</event>
<event>
 4 80 1 -1 -1 -1
 11 -1 0 0 0 0 0 0 4.95607 4.95607 0 0. 9.
 -11 -1 0 0 0 0 0 0 -4.54295 4.54295 0 0. 9.
 15 1 1 2 0 0 -1.22749 1.11842 4.28471 4.92687 1.7768 0. -1
 -15 1 1 2 0 0 1.22749 -1.11842 -3.87159 4.57215 1.7768 0. 1
</event>
<event>
 4 80 1 -1 -1 -1
 11 -1 0 0 0 0 0 0 4.99996 4.99996 0 0. 9.
 -11 -1 0 0 0 0 0 0 -4.99961 4.99961 0 0. 9.
 15 1 1 2 0 0 -1.05522 4.03881 -2.10092 4.99971 1.7768 0. -1
 -15 1 1 2 0 0 1.05522 -4.03881 2.10126 4.99986 1.7768 0. 1
</event>
<event>
 4 80 1 -1 -1 -1
 11 -1 0 0 0 0 0 0 4.99975 4.99975 0 0. 9.
 -11 -1 0 0 0 0 0 0 -4.99892 4.99892 0 0. 9.
 15 1 1 2 0 0 1.41813 -1.28678 -4.26206 4.99898 1.7768 0. 1
 -15 1 1 2 0 0 -1.41813 1.28678 4.2629 4.99969 1.7768 0. -1
</event>
<event>
 4 80 1 -1 -1 -1
 11 -1 0 0 0 0 0 0 5 5 0 0. 9.
 -11 -1 0 0 0 0 0 0 -4.99837 4.99837 0 0. 9.
 15 1 1 2 0 0 -0.906463 -2.8694 -3.57396 4.9986 1.7768 0. -1
 -15 1 1 2 0 0 0.906463 2.8694 3.57559 4.99977 1.7768 0. 1
</event>
<event>
 4 80 1 -1 -1 -1
 11 -1 0 0 0 0 0 0 4.99993 4.99993 0 0. 9.
 -11 -1 0 0 0 0 0 0 -4.99922 4.99922 0 0. 9.
 15 1 1 2 0 0 0.278357 -0.850919 -4.58619 4.99924 1.7768 0. -1
 -15 1 1 2 0 0 -0.278357 0.850919 4.5869 4.9999 1.7768 0. 1
</event>
<event>
 4 80 1 -1 -1 -1
 11 -1 0 0 0 0 0 0 5 5 0 0. 9.
 -11 -1 0 0 0 0 0 0 -5 5 0 0. 9.
 15 1 1 2 0 0 2.46209 3.62926 1.6152 5 1.7768 0. 1
 -15 1 1 2 0 0 -2.46209 -3.62926 -1.6152 5 1.7768 0. -1
</event>
<event>
 4 80 1 -1 -1 -1
 11 -1 0 0 0 0 0 0 5 5 0 0. 9.
 -11 -1 0 0 0 0 0 0 -4.80779 4.80779 0 0. 9.
 15 1 1 2 0 0 0.0178141 -3.29482 3.26294 4.96595 1.7768 0. -1
 -15 1 1 2 0 0 -0.0178141 3.29482 -3.07073 4.84183 1.7768 0. 1
</event>
<event>
 4 80 1 -1 -1 -1
 11 -1 0 0 0 0 0 0 5 5 0 0. 9.
 -11 -1 0 0 0 0 0 0 -5 5 0 0. 9.
 15 1 1 2 0 0 0.705732 -3.65232 -2.82927 5 1.7768 0. 1
 -15 1 1 2 0 0 -0.705732 3.65232 2.82927 5 1.7768 0. -1
</event>
<event>
 4 80 1 -1 -1 -1
 11 -1 0 0 0 0 0 0 5 5 0 0. 9.
 -11 -1 0 0 0 0 0 0 -5 5 0 0. 9.
 15 1 1 2 0 0 1.60912 -0.277116 -4.37907 5 1.7768 0. 1
 -15 1 1 2 0 0 -1.60912 0.277116 4.37907 5 1.7768 0. -1
</event>
<event>
 4 80 1 -1 -1 -1
 11 -1 0 0 0 0 0 0 5 5 0 0. 9.
 -11 -1 0 0 0 0 0 0 -5 5 0 0. 9.
 15 1 1 2 0 0 1.44071 2.98844 -3.29178 5 1.7768 0. -1
 -15 1 1 2 0 0 -1.44071 -2.98844 3.29178 5 1.7768 0. 1
</event>
<event>
 4 80 1 -1 -1 -1
 11 -1 0 0 0 0 0 0 5 5 0 0. 9.
 -11 -1 0 0 0 0 0 0 -5 5 0 0. 9.
 15 1 1 2 0 0 1.2129 2.14683 -3.97017 5 1.7768 0. -1
 -15 1 1 2 0 0 -1.2129 -2.14683 3.97017 5 1.7768 0. 1
</event>
<event>
 4 80 1 -1 -1 -1
 11 -1 0 0 0 0 0 0 5 5 0 0. 9.
 -11 -1 0 0 0 0 0 0 -1.61127 1.61127 0 0. 9.
 15 1 1 2 0 0 -1.09873 0.858867 -0.307209 2.27969 1.7768 0. -1
 -15 1 1 2 0 0 1.09873 -0.858867 3.69594 4.33158 1.7768 0. 1
</event>
<event>
 4 80 1 -1 -1 -1
 11 -1 0 0 0 0 0 0 4.99194 4.99194 0 0. 9.
 -11 -1 0 0 0 0 0 0 -5 5 0 0. 9.
 15 1 1 2 0 0 1.22279 -2.17997 3.93989 4.99279 1.7768 0. 1
 -15 1 1 2 0 0 -1.22279 2.17997 -3.94795 4.99915 1.7768 0. -1
</event>
<event>
 4 80 1 -1 -1 -1
 11 -1 0 0 0 0 0 0 5 5 0 0. 9.
 -11 -1 0 0 0 0 0 0 -5 5 0 0. 9.
 15 1 1 2 0 0 3.08351 0.998278 -3.36714 5 1.7768 0. 1
 -15 1 1 2 0 0 -3.08351 -0.998278 3.36714 5 1.7768 0. -1
</event>
<event>
 4 80 1 -1 -1 -1
 11 -1 0 0 0 0 0 0 5 5 0 0. 9.
 -11 -1 0 0 0 0 0 0 -5 5 0 0. 9.
 15 1 1 2 0 0 -4.05349 1.84125 1.42171 5 1.7768 0. 1
 -15 1 1 2 0 0 4.05349 -1.84125 -1.42171 5 1.7768 0. -1
</event>
<event>
 4 80 1 -1 -1 -1
 11 -1 0 0 0 0 0 0 5 5 0 0. 9.
 -11 -1 0 0 0 0 0 0 -4.99909 4.99909 0 0. 9.
 15 1 1 2 0 0 1.47723 1.26099 4.2508 4.99993 1.7768 0. 1
 -15 1 1 2 0 0 -1.47723 -1.26099 -4.24989 4.99916 1.7768 0. -1
</event>
<event>
 4 80 1 -1 -1 -1
 11 -1 0 0 0 0 0 0 5 5 0 0. 9.
 -11 -1 0 0 0 0 0 0 -5 5 0 0. 9.
 15 1 1 2 0 0 0.943984 3.77146 -2.5937 5 1.7768 0. 1
 -15 1 1 2 0 0 -0.943984 -3.77146 2.5937 5 1.7768 0. -1
</event>
<event>
 4 80 1 -1 -1 -1
 11 -1 0 0 0 0 0 0 4.99995 4.99995 0 0. 9.
 -11 -1 0 0 0 0 0 0 -5 5 0 0. 9.
 15 1 1 2 0 0 0.829279 1.85292 4.2096 4.99995 1.7768 0. -1
 -15 1 1 2 0 0 -0.829279 -1.85292 -4.20966 5 1.7768 0. 1
</event>
<event>
 4 80 1 -1 -1 -1
 11 -1 0 0 0 0 0 0 4.95403 4.95403 0 0. 9.
 -11 -1 0 0 0 0 0 0 -4.92742 4.92742 0 0. 9.
 15 1 1 2 0 0 2.63275 -2.41444 2.92742 4.94858 1.7768 0. -1
 -15 1 1 2 0 0 -2.63275 2.41444 -2.90081 4.93288 1.7768 0. 1
</event>
<event>
 4 80 1 -1 -1 -1
 11 -1 0 0 0 0 0 0 4.97594 4.97594 0 0. 9.
 -11 -1 0 0 0 0 0 0 -5 5 0 0. 9.
 15 1 1 2 0 0 3.07234 -1.07674 -3.34721 4.99601 1.7768 0. -1
 -15 1 1 2 0 0 -3.07234 1.07674 3.32314 4.97992 1.7768 0. 1
</event>
<event>
 4 80 1 -1 -1 -1
 11 -1 0 0 0 0 0 0 5 5 0 0. 9.
 -11 -1 0 0 0 0 0 0 -0.850693 0.850693 0 0. 9.
 15 1 1 2 0 0 0.993796 0.169293 2.47445 3.20888 1.7768 0. -1
 -15 1 1 2 0 0 -0.993796 -0.169293 1.67486 2.64181 1.7768 0. 1
</event>
<event>
 4 80 1 -1 -1 -1
 11 -1 0 0 0 0 0 0 4.99153 4.99153 0 0. 9.
 -11 -1 0 0 0 0 0 0 -5 5 0 0. 9.
 15 1 1 2 0 0 -4.10634 -1.99796 -0.976881 4.99659 1.7768 0. -1
 -15 1 1 2 0 0 4.10634 1.99796 0.968414 4.99494 1.7768 0. 1
</event>
<event>
 4 80 1 -1 -1 -1
 11 -1 0 0 0 0 0 0 5 5 0 0. 9.
 -11 -1 0 0 0 0 0 0 -5 5 0 0. 9.
 15 1 1 2 0 0 -1.94915 -0.545637 -4.21252 5 1.7768 0. -1
 -15 1 1 2 0 0 1.94915 0.545637 4.21252 5 1.7768 0. 1
</event>
<event>
 4 80 1 -1 -1 -1
 11 -1 0 0 0 0 0 0 2.77619 2.77619 0 0. 9.
 -11 -1 0 0 0 0 0 0 -5 5 0 0. 9.
 15 1 1 2 0 0 -2.60202 1.57295 -2.38086 4.25098 1.7768 0. 1
 -15 1 1 2 0 0 2.60202 -1.57295 0.157044 3.5252 1.7768 0. -1
</event>
<event>
 4 80 1 -1 -1 -1
 11 -1 0 0 0 0 0 0 4.31698 4.31698 0 0. 9.
 -11 -1 0 0 0 0 0 0 -4.99516 4.99516 0 0. 9.
 15 1 1 2 0 0 -3.77448 -1.21818 1.30099 4.53663 1.7768 0. -1
 -15 1 1 2 0 0 3.77448 1.21818 -1.97917 4.77552 1.7768 0. 1
</event>
<event>
 4 80 1 -1 -1 -1
 11 -1 0 0 0 0 0 0 4.99938 4.99938 0 0. 9.
 -11 -1 0 0 0 0 0 0 -5 5 0 0. 9.
 15 1 1 2 0 0 0.830858 1.48095 -4.35412 4.99996 1.7768 0. 1
 -15 1 1 2 0 0 -0.830858 -1.48095 4.3535 4.99942 1.7768 0. -1
</event>
<event>
 4 80 1 -1 -1 -1
 11 -1 0 0 0 0 0 0 4.99806 4.99806 0 0. 9.
 -11 -1 0 0 0 0 0 0 -4.99999 4.99999 0 0. 9.
 15 1 1 2 0 0 -2.24162 3.79497 -1.55204 4.99932 1.7768 0. -1
 -15 1 1 2 0 0 2.24162 -3.79497 1.55011 4.99872 1.7768 0. 1
</event>
<event>
 4 80 1 -1 -1 -1
 11 -1 0 0 0 0 0 0 4.99959 4.99959 0 0. 9.
 -11 -1 0 0 0 0 0 0 -4.99193 4.99193 0 0. 9.
 15 1 1 2 0 0 2.25497 -4.06825 -0.401586 4.99545 1.7768 0. -1
 -15 1 1 2 0 0 -2.25497 4.06825 0.409249 4.99607 1.7768 0. 1
</event>
<event>
 4 80 1 -1 -1 -1
 11 -1 0 0 0 0 0 0 5 5 0 0. 9.
 -11 -1 0 0 0 0 0 0 -5 5 0 0. 9.
 15 1 1 2 0 0 2.69491 -0.501363 3.78529 5 1.7768 0. 1
 -15 1 1 2 0 0 -2.69491 0.501363 -3.78529 5 1.7768 0. -1
</event>
<event>
 4 80 1 -1 -1 -1
 11 -1 0 0 0 0 0 0 4.66143 4.66143 0 0. 9.
 -11 -1 0 0 0 0 0 0 -4.99968 4.99968 0 0. 9.
 15 1 1 2 0 0 0.94117 -1.45451 -4.3125 4.97562 1.7768 0. -1
 -15 1 1 2 0 0 -0.94117 1.45451 3.97425 4.68549 1.7768 0. 1
</event>
<event>
 4 80 1 -1 -1 -1
 11 -1 0 0 0 0 0 0 5 5 0 0. 9.
 -11 -1 0 0 0 0 0 0 -5 5 0 0. 9.
 15 1 1 2 0 0 -1.70294 2.02317 3.85344 5 1.7768 0. 1
 -15 1 1 2 0 0 1.70294 -2.02317 -3.85344 5 1.7768 0. -1
</event>
<event>
 4 80 1 -1 -1 -1
 11 -1 0 0 0 0 0 0 4.93494 4.93494 0 0. 9.
 -11 -1 0 0 0 0 0 0 -4.71303 4.71303 0 0. 9.
 15 1 1 2 0 0 -3.33524 -2.39944 -1.68386 4.7827 1.7768 0. 1
 -15 1 1 2 0 0 3.33524 2.39944 1.90578 4.86527 1.7768 0. -1
</event>
<event>
 4 80 1 -1 -1 -1
 11 -1 0 0 0 0 0 0 4.98533 4.98533 0 0. 9.
 -11 -1 0 0 0 0 0 0 -5 5 0 0. 9.
 15 1 1 2 0 0 0.405214 4.37066 1.57444 4.99034 1.7768 0. -1
 -15 1 1 2 0 0 -0.405214 -4.37066 -1.58912 4.99499 1.7768 0. 1
</event>
<event>
 4 80 1 -1 -1 -1
 11 -1 0 0 0 0 0 0 4.99825 4.99825 0 0. 9.
 -11 -1 0 0 0 0 0 0 -4.99984 4.99984 0 0. 9.
 15 1 1 2 0 0 -4.3583 1.47504 -0.814554 4.99918 1.7768 0. 1
 -15 1 1 2 0 0 4.3583 -1.47504 0.812965 4.99892 1.7768 0. -1
</event>
<event>
 4 80 1 -1 -1 -1
 11 -1 0 0 0 0 0 0 5 5 0 0. 9.
 -11 -1 0 0 0 0 0 0 -5 5 0 0. 9.
 15 1 1 2 0 0 0.178814 4.31974 1.77487 5 1.7768 0. -1
 -15 1 1 2 0 0 -0.178814 -4.31974 -1.77487 5 1.7768 0. 1
</event>
<event>
 4 80 1 -1 -1 -1
 11 -1 0 0 0 0 0 0 5 5 0 0. 9.
 -11 -1 0 0 0 0 0 0 -5 5 0 0. 9.
 15 1 1 2 0 0 -1.64858 3.55634 -2.54499 5 1.7768 0. -1
 -15 1 1 2 0 0 1.64858 -3.55634 2.54499 5 1.7768 0. 1
</event>
<event>
 4 80 1 -1 -1 -1
 11 -1 0 0 0 0 0 0 2.84916 2.84916 0 0. 9.
 -11 -1 0 0 0 0 0 0 -5 5 0 0. 9.
 15 1 1 2 0 0 1.44789 -2.47843 0.679675 3.44365 1.7768 0. 1
 -15 1 1 2 0 0 -1.44789 2.47843 -2.83052 4.40551 1.7768 0. -1
</event>
<event>
 4 80 1 -1 -1 -1
 11 -1 0 0 0 0 0 0 4.99985 4.99985 0 0. 9.
 -11 -1 0 0 0 0 0 0 -5 5 0 0. 9.
 15 1 1 2 0 0 1.88829 -3.38816 -2.60704 4.99997 1.7768 0. 1
 -15 1 1 2 0 0 -1.88829 3.38816 2.6069 4.99989 1.7768 0. -1
</event>
<event>
 4 80 1 -1 -1 -1
 11 -1 0 0 0 0 0 0 5 5 0 0. 9.
 -11 -1 0 0 0 0 0 0 -5 5 0 0. 9.
 15 1 1 2 0 0 -2.11406 4.04188 1.01796 5 1.7768 0. 1
 -15 1 1 2 0 0 2.11406 -4.04188 -1.01796 5 1.7768 0. -1
</event>
<event>
 4 80 1 -1 -1 -1
 11 -1 0 0 0 0 0 0 5 5 0 0. 9.
 -11 -1 0 0 0 0 0 0 -5 5 0 0. 9.
 15 1 1 2 0 0 -4.54017 0.0659537 -1.1067 5 1.7768 0. -1
 -15 1 1 2 0 0 4.54017 -0.0659537 1.1067 5 1.7768 0. 1
</event>
<event>
 4 80 1 -1 -1 -1
 11 -1 0 0 0 0 0 0 5 5 0 0. 9.
 -11 -1 0 0 0 0 0 0 -4.99949 4.99949 0 0. 9.
 15 1 1 2 0 0 1.32809 -3.01667 3.3132 4.99991 1.7768 0. -1
 -15 1 1 2 0 0 -1.32809 3.01667 -3.3127 4.99958 1.7768 0. 1
</event>
<event>
 4 80 1 -1 -1 -1
 11 -1 0 0 0 0 0 0 4.88185 4.88185 0 0. 9.
 -11 -1 0 0 0 0 0 0 -5 5 0 0. 9.
 15 1 1 2 0 0 4.39436 -0.163232 1.32465 4.92438 1.7768 0. 1
 -15 1 1 2 0 0 -4.39436 0.163232 -1.44281 4.95747 1.7768 0. -1
</event>
<event>
 4 80 1 -1 -1 -1
 11 -1 0 0 0 0 0 0 4.81067 4.81067 0 0. 9.
 -11 -1 0 0 0 0 0 0 -5 5 0 0. 9.
 15 1 1 2 0 0 3.25069 -2.47482 1.95606 4.86576 1.7768 0. 1
 -15 1 1 2 0 0 -3.25069 2.47482 -2.14539 4.94491 1.7768 0. -1
</event>
<event>
 4 80 1 -1 -1 -1
 11 -1 0 0 0 0 0 0 5 5 0 0. 9.
 -11 -1 0 0 0 0 0 0 -5 5 0 0. 9.
 15 1 1 2 0 0 0.0209425 -3.83981 -2.66415 5 1.7768 0. 1
 -15 1 1 2 0 0 -0.0209425 3.83981 2.66415 5 1.7768 0. -1
</event>
<event>
 4 80 1 -1 -1 -1
 11 -1 0 0 0 0 0 0 4.99978 4.99978 0 0. 9.
 -11 -1 0 0 0 0 0 0 -5 5 0 0. 9.
 15 1 1 2 0 0 2.7048 -3.66497 1.04547 4.99987 1.7768 0. -1
 -15 1 1 2 0 0 -2.7048 3.66497 -1.04569 4.99991 1.7768 0. 1
</event>
<event>
 4 80 1 -1 -1 -1
 11 -1 0 0 0 0 0 0 4.99987 4.99987 0 0. 9.
 -11 -1 0 0 0 0 0 0 -5 5 0 0. 9.
 15 1 1 2 0 0 -0.400178 -4.50291 -1.1855 4.99995 1.7768 0. 1
 -15 1 1 2 0 0 0.400178 4.50291 1.18537 4.99992 1.7768 0. -1
</event>
<event>
 4 80 1 -1 -1 -1
 11 -1 0 0 0 0 0 0 5 5 0 0. 9.
 -11 -1 0 0 0 0 0 0 -5 5 0 0. 9.
 15 1 1 2 0 0 2.93586 3.21316 1.70253 5 1.7768 0. 1
 -15 1 1 2 0 0 -2.93586 -3.21316 -1.70253 5 1.7768 0. -1
</event>
<event>
 4 80 1 -1 -1 -1
 11 -1 0 0 0 0 0 0 4.99942 4.99942 0 0. 9.
 -11 -1 0 0 0 0 0 0 -5 5 0 0. 9.
 15 1 1 2 0 0 4.58911 0.0800274 -0.879538 4.99976 1.7768 0. -1
 -15 1 1 2 0 0 -4.58911 -0.0800274 0.878964 4.99966 1.7768 0. 1
</event>
<event>
 4 80 1 -1 -1 -1
 11 -1 0 0 0 0 0 0 4.99614 4.99614 0 0. 9.
 -11 -1 0 0 0 0 0 0 -5 5 0 0. 9.
 15 1 1 2 0 0 4.02576 1.23074 -2.02716 4.99885 1.7768 0. -1
 -15 1 1 2 0 0 -4.02576 -1.23074 2.0233 4.99729 1.7768 0. 1
</event>
<event>
 4 80 1 -1 -1 -1
 11 -1 0 0 0 0 0 0 4.61981 4.61981 0 0. 9.
 -11 -1 0 0 0 0 0 0 -5 5 0 0. 9.
 15 1 1 2 0 0 2.48395 3.22015 -2.03597 4.88286 1.7768 0. 1
 -15 1 1 2 0 0 -2.48395 -3.22015 1.65578 4.73695 1.7768 0. -1
</event>
<event>
 4 80 1 -1 -1 -1
 11 -1 0 0 0 0 0 0 4.83394 4.83394 0 0. 9.
 -11 -1 0 0 0 0 0 0 -5 5 0 0. 9.
 15 1 1 2 0 0 -1.85968 4.10064 -0.94239 4.93148 1.7768 0. -1
 -15 1 1 2 0 0 1.85968 -4.10064 0.776328 4.90246 1.7768 0. 1
</event>
<event>
 4 80 1 -1 -1 -1
 11 -1 0 0 0 0 0 0 4.3709 4.3709 0 0. 9.
 -11 -1 0 0 0 0 0 0 -5 5 0 0. 9.
 15 1 1 2 0 0 -3.83515 -1.7353 0.676199 4.61894 1.7768 0. 1
 -15 1 1 2 0 0 3.83515 1.7353 -1.3053 4.75196 1.7768 0. -1
</event>
<event>
 4 80 1 -1 -1 -1
 11 -1 0 0 0 0 0 0 5 5 0 0. 9.
 -11 -1 0 0 0 0 0 0 -5 5 0 0. 9.
 15 1 1 2 0 0 3.32984 -3.22507 0.594441 5 1.7768 0. -1
 -15 1 1 2 0 0 -3.32984 3.22507 -0.594441 5 1.7768 0. 1
</event>
<event>
 4 80 1 -1 -1 -1
 11 -1 0 0 0 0 0 0 5 5 0 0. 9.
 -11 -1 0 0 0 0 0 0 -5 5 0 0. 9.
 15 1 1 2 0 0 -4.53998 0.385017 1.0405 5 1.7768 0. -1
 -15 1 1 2 0 0 4.53998 -0.385017 -1.0405 5 1.7768 0. 1
</event>
<event>
 4 80 1 -1 -1 -1
 11 -1 0 0 0 0 0 0 4.94053 4.94053 0 0. 9.
 -11 -1 0 0 0 0 0 0 -4.46701 4.46701 0 0. 9.
 15 1 1 2 0 0 3.33137 0.62671 -2.49083 4.56648 1.7768 0. -1
 -15 1 1 2 0 0 -3.33137 -0.62671 2.96435 4.84106 1.7768 0. 1
</event>
<event>
 4 80 1 -1 -1 -1
 11 -1 0 0 0 0 0 0 5 5 0 0. 9.
 -11 -1 0 0 0 0 0 0 -5 5 0 0. 9.
 15 1 1 2 0 0 3.90238 1.69282 1.93599 5 1.7768 0. -1
 -15 1 1 2 0 0 -3.90238 -1.69282 -1.93599 5 1.7768 0. 1
</event>
<event>
 4 80 1 -1 -1 -1
 11 -1 0 0 0 0 0 0 5 5 0 0. 9.
 -11 -1 0 0 0 0 0 0 -5 5 0 0. 9.
 15 1 1 2 0 0 1.06388 -4.15483 -1.85682 5 1.7768 0. 1
 -15 1 1 2 0 0 -1.06388 4.15483 1.85682 5 1.7768 0. -1
</event>
<event>
 4 80 1 -1 -1 -1
 11 -1 0 0 0 0 0 0 4.9914 4.9914 0 0. 9.
 -11 -1 0 0 0 0 0 0 -4.9261 4.9261 0 0. 9.
 15 1 1 2 0 0 -0.482155 3.67504 -2.74087 4.94049 1.7768 0. 1
 -15 1 1 2 0 0 0.482155 -3.67504 2.80616 4.97701 1.7768 0. -1
</event>
<event>
 4 80 1 -1 -1 -1
 11 -1 0 0 0 0 0 0 5 5 0 0. 9.
 -11 -1 0 0 0 0 0 0 -5 5 0 0. 9.
 15 1 1 2 0 0 -3.05584 -3.51507 -0.385182 5 1.7768 0. -1
 -15 1 1 2 0 0 3.05584 3.51507 0.385182 5 1.7768 0. 1
</event>
<event>
 4 80 1 -1 -1 -1
 11 -1 0 0 0 0 0 0 5 5 0 0. 9.
 -11 -1 0 0 0 0 0 0 -4.91235 4.91235 0 0. 9.
 15 1 1 2 0 0 -1.9913 3.31347 -2.49785 4.9337 1.7768 0. 1
 -15 1 1 2 0 0 1.9913 -3.31347 2.5855 4.97865 1.7768 0. -1
</event>
<event>
 4 80 1 -1 -1 -1
 11 -1 0 0 0 0 0 0 5 5 0 0. 9.
 -11 -1 0 0 0 0 0 0 -2.26214 2.26214 0 0. 9.
 15 1 1 2 0 0 1.21922 -2.27162 2.69398 4.13062 1.7768 0. 1
 -15 1 1 2 0 0 -1.21922 2.27162 0.0438828 3.13152 1.7768 0. -1
</event>
<event>
 4 80 1 -1 -1 -1
 11 -1 0 0 0 0 0 0 2.79922 2.79922 0 0. 9.
 -11 -1 0 0 0 0 0 0 -5 5 0 0. 9.
 15 1 1 2 0 0 -0.904385 0.14073 2.19594 2.96945 1.7768 0. 1
 -15 1 1 2 0 0 0.904385 -0.14073 -4.39673 4.82977 1.7768 0. -1
</event>
<event>
 4 80 1 -1 -1 -1
 11 -1 0 0 0 0 0 0 4.96106 4.96106 0 0. 9.
 -11 -1 0 0 0 0 0 0 -5 5 0 0. 9.
 15 1 1 2 0 0 2.75197 0.60101 3.68367 4.96606 1.7768 0. 1
 -15 1 1 2 0 0 -2.75197 -0.60101 -3.72261 4.99501 1.7768 0. -1
</event>
<event>
 4 80 1 -1 -1 -1
 11 -1 0 0 0 0 0 0 4.59951 4.59951 0 0. 9.
 -11 -1 0 0 0 0 0 0 -5 5 0 0. 9.
 15 1 1 2 0 0 1.3537 -2.118 3.48011 4.64621 1.7768 0. -1
 -15 1 1 2 0 0 -1.3537 2.118 -3.88059 4.9533 1.7768 0. 1
</event>
<event>
 4 80 1 -1 -1 -1
 11 -1 0 0 0 0 0 0 1.61673 1.61673 0 0. 9.
 -11 -1 0 0 0 0 0 0 -5 5 0 0. 9.
 15 1 1 2 0 0 -0.873386 0.814597 0.485152 2.19533 1.7768 0. -1
 -15 1 1 2 0 0 0.873386 -0.814597 -3.86842 4.4214 1.7768 0. 1
</event>
<event>
 4 80 1 -1 -1 -1
 11 -1 0 0 0 0 0 0 4.4215 4.4215 0 0. 9.
 -11 -1 0 0 0 0 0 0 -4.99785 4.99785 0 0. 9.
 15 1 1 2 0 0 -0.417561 4.27368 -0.997685 4.75309 1.7768 0. -1
 -15 1 1 2 0 0 0.417561 -4.27368 0.421336 4.66626 1.7768 0. 1
</event>
<event>
 4 80 1 -1 -1 -1
 11 -1 0 0 0 0 0 0 4.97821 4.97821 0 0. 9.
 -11 -1 0 0 0 0 0 0 -4.99949 4.99949 0 0. 9.
 15 1 1 2 0 0 0.937422 -3.78664 -2.56279 4.9943 1.7768 0. -1
 -15 1 1 2 0 0 -0.937422 3.78664 2.54151 4.98341 1.7768 0. 1
</event>
<event>
 4 80 1 -1 -1 -1
 11 -1 0 0 0 0 0 0 4.99998 4.99998 0 0. 9.
 -11 -1 0 0 0 0 0 0 -5 5 0 0. 9.
 15 1 1 2 0 0 3.28075 -2.9378 1.56465 4.99999 1.7768 0. 1
 -15 1 1 2 0 0 -3.28075 2.9378 -1.56467 4.99999 1.7768 0. -1
</event>
<event>
 4 80 1 -1 -1 -1
 11 -1 0 0 0 0 0 0 4.28518 4.28518 0 0. 9.
 -11 -1 0 0 0 0 0 0 -4.19832 4.19832 0 0. 9.
 15 1 1 2 0 0 0.186829 -0.66294 3.83288 4.28055 1.7768 0. -1
 -15 1 1 2 0 0 -0.186829 0.66294 -3.74602 4.20295 1.7768 0. 1
</event>
<event>
 4 80 1 -1 -1 -1
 11 -1 0 0 0 0 0 0 4.9993 4.9993 0 0. 9.
 -11 -1 0 0 0 0 0 0 -5 5 0 0. 9.
 15 1 1 2 0 0 -1.52296 1.62091 4.10964 4.99936 1.7768 0. -1
 -15 1 1 2 0 0 1.52296 -1.62091 -4.11034 4.99994 1.7768 0. 1
</event>
<event>
 4 80 1 -1 -1 -1
 11 -1 0 0 0 0 0 0 4.99832 4.99832 0 0. 9.
 -11 -1 0 0 0 0 0 0 -4.93058 4.93058 0 0. 9.
 15 1 1 2 0 0 -0.0588768 3.81445 2.66707 4.98241 1.7768 0. 1
 -15 1 1 2 0 0 0.0588768 -3.81445 -2.59932 4.94648 1.7768 0. -1
</event>
<event>
 4 80 1 -1 -1 -1
 11 -1 0 0 0 0 0 0 5 5 0 0. 9.
 -11 -1 0 0 0 0 0 0 -5 5 0 0. 9.
 15 1 1 2 0 0 -2.40011 1.01976 3.87838 5 1.7768 0. 1
 -15 1 1 2 0 0 2.40011 -1.01976 -3.87838 5 1.7768 0. -1
</event>
<event>
 4 80 1 -1 -1 -1
 11 -1 0 0 0 0 0 0 5 5 0 0. 9.
 -11 -1 0 0 0 0 0 0 -5 5 0 0. 9.
 15 1 1 2 0 0 -1.46268 -4.12089 -1.64957 5 1.7768 0. 1
 -15 1 1 2 0 0 1.46268 4.12089 1.64957 5 1.7768 0. -1
</event>
<event>
 4 80 1 -1 -1 -1
 11 -1 0 0 0 0 0 0 5 5 0 0. 9.
 -11 -1 0 0 0 0 0 0 -5 5 0 0. 9.
 15 1 1 2 0 0 -2.44404 -1.96609 3.4646 5 1.7768 0. 1
 -15 1 1 2 0 0 2.44404 1.96609 -3.4646 5 1.7768 0. -1
</event>
<event>
 4 80 1 -1 -1 -1
 11 -1 0 0 0 0 0 0 5 5 0 0. 9.
 -11 -1 0 0 0 0 0 0 -5 5 0 0. 9.
 15 1 1 2 0 0 -1.25111 -2.40386 3.80769 5 1.7768 0. -1
 -15 1 1 2 0 0 1.25111 2.40386 -3.80769 5 1.7768 0. 1
</event>
<event>
 4 80 1 -1 -1 -1
 11 -1 0 0 0 0 0 0 5 5 0 0. 9.
 -11 -1 0 0 0 0 0 0 -4.0684 4.0684 0 0. 9.
 15 1 1 2 0 0 -0.706849 0.0837523 -3.63974 4.11243 1.7768 0. -1
 -15 1 1 2 0 0 0.706849 -0.0837523 4.57135 4.95596 1.7768 0. 1
</event>
<event>
 4 80 1 -1 -1 -1
 11 -1 0 0 0 0 0 0 5 5 0 0. 9.
 -11 -1 0 0 0 0 0 0 -4.99996 4.99996 0 0. 9.
 15 1 1 2 0 0 0.222254 -0.292603 -4.65906 4.99996 1.7768 0. -1
 -15 1 1 2 0 0 -0.222254 0.292603 4.6591 5 1.7768 0. 1
</event>
<event>
 4 80 1 -1 -1 -1
 11 -1 0 0 0 0 0 0 4.4912 4.4912 0 0. 9.
 -11 -1 0 0 0 0 0 0 -4.99296 4.99296 0 0. 9.
 15 1 1 2 0 0 -2.54926 -1.20015 -3.62125 4.92039 1.7768 0. -1
 -15 1 1 2 0 0 2.54926 1.20015 3.11949 4.56378 1.7768 0. 1
</event>
<event>
 4 80 1 -1 -1 -1
 11 -1 0 0 0 0 0 0 5 5 0 0. 9.
 -11 -1 0 0 0 0 0 0 -4.8799 4.8799 0 0. 9.
 15 1 1 2 0 0 1.84218 -1.93117 -3.69772 4.89427 1.7768 0. -1
 -15 1 1 2 0 0 -1.84218 1.93117 3.81782 4.98563 1.7768 0. 1
</event>
<event>
 4 80 1 -1 -1 -1
 11 -1 0 0 0 0 0 0 5 5 0 0. 9.
 -11 -1 0 0 0 0 0 0 -4.99203 4.99203 0 0. 9.
 15 1 1 2 0 0 -1.72928 -0.203759 -4.32851 4.99256 1.7768 0. -1
 -15 1 1 2 0 0 1.72928 0.203759 4.33648 4.99947 1.7768 0. 1
</event>
<event>
 4 80 1 -1 -1 -1
 11 -1 0 0 0 0 0 0 4.99946 4.99946 0 0. 9.
 -11 -1 0 0 0 0 0 0 -5 5 0 0. 9.
 15 1 1 2 0 0 -3.60483 -0.134464 2.97071 4.99957 1.7768 0. 1
 -15 1 1 2 0 0 3.60483 0.134464 -2.97125 4.99989 1.7768 0. -1
</event>
<event>
 4 80 1 -1 -1 -1
 11 -1 0 0 0 0 0 0 5 5 0 0. 9.
 -11 -1 0 0 0 0 0 0 -4.98893 4.98893 0 0. 9.
 15 1 1 2 0 0 0.605183 4.59183 -0.573929 4.99382 1.7768 0. -1
 -15 1 1 2 0 0 -0.605183 -4.59183 0.585003 4.99511 1.7768 0. 1
</event>
<event>
 4 80 1 -1 -1 -1
 11 -1 0 0 0 0 0 0 5 5 0 0. 9.
 -11 -1 0 0 0 0 0 0 -0.79079 0.79079 0 0. 9.
 15 1 1 2 0 0 0.045106 0.0870346 0.813171 1.95668 1.7768 0. -1
 -15 1 1 2 0 0 -0.045106 -0.0870346 3.39604 3.83411 1.7768 0. 1
</event>
<event>
 4 80 1 -1 -1 -1
 11 -1 0 0 0 0 0 0 5 5 0 0. 9.
 -11 -1 0 0 0 0 0 0 -4.95211 4.95211 0 0. 9.
 15 1 1 2 0 0 -0.804658 2.41738 3.91136 4.99476 1.7768 0. 1
 -15 1 1 2 0 0 0.804658 -2.41738 -3.86347 4.95735 1.7768 0. -1
</event>
<event>
 4 80 1 -1 -1 -1
 11 -1 0 0 0 0 0 0 5 5 0 0. 9.
 -11 -1 0 0 0 0 0 0 -5 5 0 0. 9.
 15 1 1 2 0 0 4.64286 0.474198 0.247495 5 1.7768 0. -1
 -15 1 1 2 0 0 -4.64286 -0.474198 -0.247496 5 1.7768 0. 1
</event>
<event>
 4 80 1 -1 -1 -1
 11 -1 0 0 0 0 0 0 4.80296 4.80296 0 0. 9.
 -11 -1 0 0 0 0 0 0 -5 5 0 0. 9.
 15 1 1 2 0 0 1.53121 4.28877 -0.443449 4.90841 1.7768 0. -1
 -15 1 1 2 0 0 -1.53121 -4.28877 0.246406 4.89455 1.7768 0. 1
</event>
<event>
 4 80 1 -1 -1 -1
 11 -1 0 0 0 0 0 0 5 5 0 0. 9.
 -11 -1 0 0 0 0 0 0 -4.73752 4.73752 0 0. 9.
 15 1 1 2 0 0 -2.53586 -2.63227 -2.5475 4.79655 1.7768 0. 1
 -15 1 1 2 0 0 2.53586 2.63227 2.80998 4.94097 1.7768 0. -1
</event>
<event>
 4 80 1 -1 -1 -1
 11 -1 0 0 0 0 0 0 5 5 0 0. 9.
 -11 -1 0 0 0 0 0 0 -5 5 0 0. 9.
 15 1 1 2 0 0 -3.11102 -1.42096 -3.18507 5 1.7768 0. 1
 -15 1 1 2 0 0 3.11102 1.42096 3.18507 5 1.7768 0. -1
</event>
<event>
 4 80 1 -1 -1 -1
 11 -1 0 0 0 0 0 0 5 5 0 0. 9.
 -11 -1 0 0 0 0 0 0 -4.99982 4.99982 0 0. 9.
 15 1 1 2 0 0 3.71638 -0.432223 2.80064 4.99996 1.7768 0. 1
 -15 1 1 2 0 0 -3.71638 0.432223 -2.80046 4.99986 1.7768 0. -1
</event>
<event>
 4 80 1 -1 -1 -1
 11 -1 0 0 0 0 0 0 4.94745 4.94745 0 0. 9.
 -11 -1 0 0 0 0 0 0 -5 5 0 0. 9.
 15 1 1 2 0 0 0.844022 0.0761514 -4.59376 4.99785 1.7768 0. 1
 -15 1 1 2 0 0 -0.844022 -0.0761514 4.54122 4.9496 1.7768 0. -1
</event>
<event>
 4 80 1 -1 -1 -1
 11 -1 0 0 0 0 0 0 4.97235 4.97235 0 0. 9.
 -11 -1 0 0 0 0 0 0 -3.25895 3.25895 0 0. 9.
 15 1 1 2 0 0 -0.0930644 3.54785 0.170092 3.97273 1.7768 0. -1
 -15 1 1 2 0 0 0.0930644 -3.54785 1.54331 4.25857 1.7768 0. 1
</event>
<event>
 4 80 1 -1 -1 -1
 11 -1 0 0 0 0 0 0 4.99938 4.99938 0 0. 9.
 -11 -1 0 0 0 0 0 0 -5 5 0 0. 9.
 15 1 1 2 0 0 4.05914 -1.64636 1.62819 4.99959 1.7768 0. 1
 -15 1 1 2 0 0 -4.05914 1.64636 -1.62881 4.99979 1.7768 0. -1
</event>
<event>
 4 80 1 -1 -1 -1
 11 -1 0 0 0 0 0 0 4.99988 4.99988 0 0. 9.
 -11 -1 0 0 0 0 0 0 -3.88158 3.88158 0 0. 9.
 15 1 1 2 0 0 1.10674 -2.56976 3.48436 4.80906 1.7768 0. 1
 -15 1 1 2 0 0 -1.10674 2.56976 -2.36606 4.07241 1.7768 0. -1
</event>
<event>
 4 80 1 -1 -1 -1
 11 -1 0 0 0 0 0 0 4.99829 4.99829 0 0. 9.
 -11 -1 0 0 0 0 0 0 -5 5 0 0. 9.
 15 1 1 2 0 0 -0.168329 4.63902 -0.534574 4.99924 1.7768 0. -1
 -15 1 1 2 0 0 0.168329 -4.63902 0.532869 4.99906 1.7768 0. 1
</event>
<event>
 4 80 1 -1 -1 -1
 11 -1 0 0 0 0 0 0 4.99844 4.99844 0 0. 9.
 -11 -1 0 0 0 0 0 0 -5 5 0 0. 9.
 15 1 1 2 0 0 3.52216 -0.0593314 -3.07085 4.9997 1.7768 0. -1
 -15 1 1 2 0 0 -3.52216 0.0593314 3.06929 4.99874 1.7768 0. 1
</event>
<event>
 4 80 1 -1 -1 -1
 11 -1 0 0 0 0 0 0 4.9271 4.9271 0 0. 9.
 -11 -1 0 0 0 0 0 0 -5 5 0 0. 9.
 15 1 1 2 0 0 0.959289 -3.46792 2.88442 4.9421 1.7768 0. -1
 -15 1 1 2 0 0 -0.959289 3.46792 -2.95732 4.985 1.7768 0. 1
</event>
<event>
 4 80 1 -1 -1 -1
 11 -1 0 0 0 0 0 0 4.99851 4.99851 0 0. 9.
 -11 -1 0 0 0 0 0 0 -5 5 0 0. 9.
 15 1 1 2 0 0 2.96489 -3.07051 1.9009 4.99897 1.7768 0. 1
 -15 1 1 2 0 0 -2.96489 3.07051 -1.90239 4.99954 1.7768 0. -1
</event>
<event>
 4 80 1 -1 -1 -1
 11 -1 0 0 0 0 0 0 5 5 0 0. 9.
 -11 -1 0 0 0 0 0 0 -5 5 0 0. 9.
 15 1 1 2 0 0 -2.51218 3.61807 -1.5623 5 1.7768 0. 1
 -15 1 1 2 0 0 2.51218 -3.61807 1.5623 5 1.7768 0. -1
</event>
<event>
 4 80 1 -1 -1 -1
 11 -1 0 0 0 0 0 0 5 5 0 0. 9.
 -11 -1 0 0 0 0 0 0 -3.84284 3.84284 0 0. 9.
 15 1 1 2 0 0 3.86263 1.03548 0.834433 4.4549 1.7768 0. -1
 -15 1 1 2 0 0 -3.86263 -1.03548 0.32273 4.38794 1.7768 0. 1
</event>
<event>
 4 80 1 -1 -1 -1
 11 -1 0 0 0 0 0 0 4.96099 4.96099 0 0. 9.
 -11 -1 0 0 0 0 0 0 -4.9988 4.9988 0 0. 9.
 15 1 1 2 0 0 -0.45269 -4.45024 -1.29629 4.98474 1.7768 0. 1
 -15 1 1 2 0 0 0.45269 4.45024 1.25849 4.97505 1.7768 0. -1
</event>
<event>
 4 80 1 -1 -1 -1
 11 -1 0 0 0 0 0 0 5 5 0 0. 9.
 -11 -1 0 0 0 0 0 0 -4.99363 4.99363 0 0. 9.
 15 1 1 2 0 0 2.23175 3.98219 -0.982643 4.99619 1.7768 0. 1
 -15 1 1 2 0 0 -2.23175 -3.98219 0.989013 4.99744 1.7768 0. -1
</event>
<event>
 4 80 1 -1 -1 -1
 11 -1 0 0 0 0 0 0 5 5 0 0. 9.
 -11 -1 0 0 0 0 0 0 -5 5 0 0. 9.
 15 1 1 2 0 0 3.29783 -2.62681 2.01655 5 1.7768 0. -1
 -15 1 1 2 0 0 -3.29783 2.62681 -2.01655 5 1.7768 0. 1
</event>
<event>
 4 80 1 -1 -1 -1
 11 -1 0 0 0 0 0 0 5 5 0 0. 9.
 -11 -1 0 0 0 0 0 0 -5 5 0 0. 9.
 15 1 1 2 0 0 0.186427 3.87178 -2.6109 5 1.7768 0. -1
 -15 1 1 2 0 0 -0.186427 -3.87178 2.6109 5 1.7768 0. 1
</event>
<event>
 4 80 1 -1 -1 -1
 11 -1 0 0 0 0 0 0 4.91194 4.91194 0 0. 9.
 -11 -1 0 0 0 0 0 0 -4.46865 4.46865 0 0. 9.
 15 1 1 2 0 0 -1.71741 3.29902 -2.00772 4.58494 1.7768 0. 1
 -15 1 1 2 0 0 1.71741 -3.29902 2.45101 4.79565 1.7768 0. -1
</event>
<event>
 4 80 1 -1 -1 -1
 11 -1 0 0 0 0 0 0 4.2904 4.2904 0 0. 9.
 -11 -1 0 0 0 0 0 0 -4.92428 4.92428 0 0. 9.
 15 1 1 2 0 0 2.50482 -2.29383 -2.85943 4.78224 1.7768 0. 1
 -15 1 1 2 0 0 -2.50482 2.29383 2.22555 4.43244 1.7768 0. -1
</event>
<event>
 4 80 1 -1 -1 -1
 11 -1 0 0 0 0 0 0 4.99958 4.99958 0 0. 9.
 -11 -1 0 0 0 0 0 0 -4.25057 4.25057 0 0. 9.
 15 1 1 2 0 0 1.44099 -2.98721 3.04664 4.84145 1.7768 0. 1
 -15 1 1 2 0 0 -1.44099 2.98721 -2.29763 4.4087 1.7768 0. -1
</event>
<event>
 4 80 1 -1 -1 -1
 11 -1 0 0 0 0 0 0 5 5 0 0. 9.
 -11 -1 0 0 0 0 0 0 -4.99999 4.99999 0 0. 9.
 15 1 1 2 0 0 1.00908 1.88802 -4.15444 5 1.7768 0. 1
 -15 1 1 2 0 0 -1.00908 -1.88802 4.15444 5 1.7768 0. -1
</event>
<event>
 4 80 1 -1 -1 -1
 11 -1 0 0 0 0 0 0 5 5 0 0. 9.
 -11 -1 0 0 0 0 0 0 -5 5 0 0. 9.
 15 1 1 2 0 0 0.130553 2.63023 3.86097 5 1.7768 0. 1
 -15 1 1 2 0 0 -0.130553 -2.63023 -3.86097 5 1.7768 0. -1
</event>
<event>
 4 80 1 -1 -1 -1
 11 -1 0 0 0 0 0 0 4.74365 4.74365 0 0. 9.
 -11 -1 0 0 0 0 0 0 -3.69251 3.69251 0 0. 9.
 15 1 1 2 0 0 0.249044 3.74378 1.05919 4.28457 1.7768 0. 1
 -15 1 1 2 0 0 -0.249044 -3.74378 -0.00804486 4.15159 1.7768 0. -1
</event>
<event>
 4 80 1 -1 -1 -1
 11 -1 0 0 0 0 0 0 3.5854 3.5854 0 0. 9.
 -11 -1 0 0 0 0 0 0 -5 5 0 0. 9.
 15 1 1 2 0 0 -0.655761 2.44768 2.22204 3.81003 1.7768 0. -1
 -15 1 1 2 0 0 0.655761 -2.44768 -3.63665 4.77536 1.7768 0. 1
</event>
<event>
 4 80 1 -1 -1 -1
 11 -1 0 0 0 0 0 0 5 5 0 0. 9.
 -11 -1 0 0 0 0 0 0 -4.93802 4.93802 0 0. 9.
 15 1 1 2 0 0 1.04416 -2.47199 -3.75477 4.9454 1.7768 0. 1
 -15 1 1 2 0 0 -1.04416 2.47199 3.81675 4.99262 1.7768 0. -1
</event>
<event>
 4 80 1 -1 -1 -1
 11 -1 0 0 0 0 0 0 4.99982 4.99982 0 0. 9.
 -11 -1 0 0 0 0 0 0 -4.99159 4.99159 0 0. 9.
 15 1 1 2 0 0 -0.57153 4.56206 0.816686 4.99637 1.7768 0. -1
 -15 1 1 2 0 0 0.57153 -4.56206 -0.808455 4.99503 1.7768 0. 1
</event>
<event>
 4 80 1 -1 -1 -1
 11 -1 0 0 0 0 0 0 4.99996 4.99996 0 0. 9.
 -11 -1 0 0 0 0 0 0 -4.98684 4.98684 0 0. 9.
 15 1 1 2 0 0 -2.3926 -1.87211 3.54873 4.99805 1.7768 0. 1
 -15 1 1 2 0 0 2.3926 1.87211 -3.53561 4.98875 1.7768 0. -1
</event>
<event>
 4 80 1 -1 -1 -1
 11 -1 0 0 0 0 0 0 4.80029 4.80029 0 0. 9.
 -11 -1 0 0 0 0 0 0 -4.94395 4.94395 0 0. 9.
 15 1 1 2 0 0 0.431751 0.992421 -4.47724 4.93707 1.7768 0. -1
 -15 1 1 2 0 0 -0.431751 -0.992421 4.33357 4.80717 1.7768 0. 1
</event>
<event>
 4 80 1 -1 -1 -1
 11 -1 0 0 0 0 0 0 5 5 0 0. 9.
 -11 -1 0 0 0 0 0 0 -5 5 0 0. 9.
 15 1 1 2 0 0 0.399795 -3.61058 -2.94044 5 1.7768 0. 1
 -15 1 1 2 0 0 -0.399795 3.61058 2.94044 5 1.7768 0. -1
</event>
<event>
 4 80 1 -1 -1 -1
 11 -1 0 0 0 0 0 0 5 5 0 0. 9.
 -11 -1 0 0 0 0 0 0 -4.99999 4.99999 0 0. 9.
 15 1 1 2 0 0 -1.21113 -0.399402 -4.4962 4.99999 1.7768 0. -1
 -15 1 1 2 0 0 1.21113 0.399402 4.49621 5 1.7768 0. 1
</event>
<event>
 4 80 1 -1 -1 -1
 11 -1 0 0 0 0 0 0 4.88979 4.88979 0 0. 9.
 -11 -1 0 0 0 0 0 0 -5 5 0 0. 9.
 15 1 1 2 0 0 2.56787 -1.67547 3.39331 4.90647 1.7768 0. -1
 -15 1 1 2 0 0 -2.56787 1.67547 -3.50352 4.98332 1.7768 0. 1
</event>
<event>
 4 80 1 -1 -1 -1
 11 -1 0 0 0 0 0 0 4.97489 4.97489 0 0. 9.
 -11 -1 0 0 0 0 0 0 -4.99985 4.99985 0 0. 9.
 15 1 1 2 0 0 -3.84604 1.9195 -1.81234 4.99187 1.7768 0. 1
 -15 1 1 2 0 0 3.84604 -1.9195 1.78738 4.98287 1.7768 0. -1
</event>
<event>
 4 80 1 -1 -1 -1
 11 -1 0 0 0 0 0 0 4.96281 4.96281 0 0. 9.
 -11 -1 0 0 0 0 0 0 -4.99335 4.99335 0 0. 9.
 15 1 1 2 0 0 0.00639408 1.24579 -4.49539 4.99183 1.7768 0. -1
 -15 1 1 2 0 0 -0.00639408 -1.24579 4.46485 4.96434 1.7768 0. 1
</event>
<event>
 4 80 1 -1 -1 -1
 11 -1 0 0 0 0 0 0 4.99991 4.99991 0 0. 9.
 -11 -1 0 0 0 0 0 0 -4.74964 4.74964 0 0. 9.
 15 1 1 2 0 0 -1.9783 3.49053 2.2454 4.9292 1.7768 0. 1
 -15 1 1 2 0 0 1.9783 -3.49053 -1.99512 4.82034 1.7768 0. -1
</event>
<event>
 4 80 1 -1 -1 -1
 11 -1 0 0 0 0 0 0 5 5 0 0. 9.
 -11 -1 0 0 0 0 0 0 -4.90264 4.90264 0 0. 9.
 15 1 1 2 0 0 2.2778 1.73773 -3.57742 4.91567 1.7768 0. -1
 -15 1 1 2 0 0 -2.2778 -1.73773 3.67478 4.98697 1.7768 0. 1
</event>
<event>
 4 80 1 -1 -1 -1
 11 -1 0 0 0 0 0 0 5 5 0 0. 9.
 -11 -1 0 0 0 0 0 0 -5 5 0 0. 9.
 15 1 1 2 0 0 -1.94984 -0.295863 4.23708 5 1.7768 0. -1
 -15 1 1 2 0 0 1.94984 0.295863 -4.23708 5 1.7768 0. 1
</event>
<event>
 4 80 1 -1 -1 -1
 11 -1 0 0 0 0 0 0 5 5 0 0. 9.
 -11 -1 0 0 0 0 0 0 -5 5 0 0. 9.
 15 1 1 2 0 0 1.38408 3.72595 2.45843 5 1.7768 0. -1
 -15 1 1 2 0 0 -1.38408 -3.72595 -2.45843 5 1.7768 0. 1
</event>
<event>
 4 80 1 -1 -1 -1
 11 -1 0 0 0 0 0 0 4.99993 4.99993 0 0. 9.
 -11 -1 0 0 0 0 0 0 -4.99997 4.99997 0 0. 9.
 15 1 1 2 0 0 2.37969 -0.577344 -3.98066 4.99997 1.7768 0. -1
 -15 1 1 2 0 0 -2.37969 0.577344 3.98062 4.99993 1.7768 0. 1
</event>
<event>
 4 80 1 -1 -1 -1
 11 -1 0 0 0 0 0 0 5 5 0 0. 9.
 -11 -1 0 0 0 0 0 0 -2.80976 2.80976 0 0. 9.
 15 1 1 2 0 0 -0.461573 3.13273 2.06353 4.17647 1.7768 0. 1
 -15 1 1 2 0 0 0.461573 -3.13273 0.126708 3.63329 1.7768 0. -1
</event>
<event>
 4 80 1 -1 -1 -1
 11 -1 0 0 0 0 0 0 4.99455 4.99455 0 0. 9.
 -11 -1 0 0 0 0 0 0 -4.98131 4.98131 0 0. 9.
 15 1 1 2 0 0 -1.9285 -0.56833 -4.19809 4.98235 1.7768 0. 1
 -15 1 1 2 0 0 1.9285 0.56833 4.21134 4.99351 1.7768 0. -1
</event>
<event>
 4 80 1 -1 -1 -1
 11 -1 0 0 0 0 0 0 5 5 0 0. 9.
 -11 -1 0 0 0 0 0 0 -5 5 0 0. 9.
 15 1 1 2 0 0 1.06454 -4.49546 0.707042 5 1.7768 0. 1
 -15 1 1 2 0 0 -1.06454 4.49546 -0.707042 5 1.7768 0. -1
</event>
<event>
 4 80 1 -1 -1 -1
 11 -1 0 0 0 0 0 0 4.99726 4.99726 0 0. 9.
 -11 -1 0 0 0 0 0 0 -5 5 0 0. 9.
 15 1 1 2 0 0 -0.417545 -3.15426 -3.42261 4.99957 1.7768 0. 1
 -15 1 1 2 0 0 0.417545 3.15426 3.41986 4.99769 1.7768 0. -1
</event>
<event>
 4 80 1 -1 -1 -1
 11 -1 0 0 0 0 0 0 5 5 0 0. 9.
 -11 -1 0 0 0 0 0 0 -3.2009 3.2009 0 0. 9.
 15 1 1 2 0 0 0.668583 -2.01484 -2.0605 3.45108 1.7768 0. 1
 -15 1 1 2 0 0 -0.668583 2.01484 3.85959 4.74982 1.7768 0. -1
</event>
<event>
 4 80 1 -1 -1 -1
 11 -1 0 0 0 0 0 0 4.99563 4.99563 0 0. 9.
 -11 -1 0 0 0 0 0 0 -4.99532 4.99532 0 0. 9.
 15 1 1 2 0 0 1.96271 -3.86695 -1.72944 4.99542 1.7768 0. -1
 -15 1 1 2 0 0 -1.96271 3.86695 1.72975 4.99553 1.7768 0. 1
</event>
<event>
 4 80 1 -1 -1 -1
 11 -1 0 0 0 0 0 0 5 5 0 0. 9.
 -11 -1 0 0 0 0 0 0 -5 5 0 0. 9.
 15 1 1 2 0 0 -2.77568 -0.613016 3.70973 5 1.7768 0. 1
 -15 1 1 2 0 0 2.77568 0.613016 -3.70973 5 1.7768 0. -1
</event>
<event>
 4 80 1 -1 -1 -1
 11 -1 0 0 0 0 0 0 5 5 0 0. 9.
 -11 -1 0 0 0 0 0 0 -5 5 0 0. 9.
 15 1 1 2 0 0 4.4783 -1.21224 -0.563529 5 1.7768 0. 1
 -15 1 1 2 0 0 -4.4783 1.21224 0.563529 5 1.7768 0. -1
</event>
<event>
 4 80 1 -1 -1 -1
 11 -1 0 0 0 0 0 0 4.9999 4.9999 0 0. 9.
 -11 -1 0 0 0 0 0 0 -5 5 0 0. 9.
 15 1 1 2 0 0 -0.597875 -0.0281606 -4.63508 5 1.7768 0. 1
 -15 1 1 2 0 0 0.597875 0.0281606 4.63498 4.9999 1.7768 0. -1
</event>
<event>
 4 80 1 -1 -1 -1
 11 -1 0 0 0 0 0 0 0.89623 0.89623 0 0. 9.
 -11 -1 0 0 0 0 0 0 -5 5 0 0. 9.
 15 1 1 2 0 0 -0.00630412 0.528086 -3.47521 3.93875 1.7768 0. 1
 -15 1 1 2 0 0 0.00630412 -0.528086 -0.628555 1.95748 1.7768 0. -1
</event>
<event>
 4 80 1 -1 -1 -1
 11 -1 0 0 0 0 0 0 4.99999 4.99999 0 0. 9.
 -11 -1 0 0 0 0 0 0 -4.99997 4.99997 0 0. 9.
 15 1 1 2 0 0 -0.821097 -4.26814 1.71781 4.99998 1.7768 0. -1
 -15 1 1 2 0 0 0.821097 4.26814 -1.7178 4.99998 1.7768 0. 1
</event>
<event>
 4 80 1 -1 -1 -1
 11 -1 0 0 0 0 0 0 5 5 0 0. 9.
 -11 -1 0 0 0 0 0 0 -4.9999 4.9999 0 0. 9.
 15 1 1 2 0 0 2.35733 -3.21306 -2.44147 4.99992 1.7768 0. 1
 -15 1 1 2 0 0 -2.35733 3.21306 2.44157 4.99997 1.7768 0. -1
</event>
<event>
 4 80 1 -1 -1 -1
 11 -1 0 0 0 0 0 0 5 5 0 0. 9.
 -11 -1 0 0 0 0 0 0 -5 5 0 0. 9.
 15 1 1 2 0 0 3.18014 0.623502 -3.36753 5 1.7768 0. 1
 -15 1 1 2 0 0 -3.18014 -0.623502 3.36752 5 1.7768 0. -1
</event>
<event>
 4 80 1 -1 -1 -1
 11 -1 0 0 0 0 0 0 5 5 0 0. 9.
 -11 -1 0 0 0 0 0 0 -4.93996 4.93996 0 0. 9.
 15 1 1 2 0 0 4.13542 1.02779 1.86962 4.98109 1.7768 0. 1
 -15 1 1 2 0 0 -4.13542 -1.02779 -1.80957 4.95887 1.7768 0. -1
</event>
<event>
 4 80 1 -1 -1 -1
 11 -1 0 0 0 0 0 0 5 5 0 0. 9.
 -11 -1 0 0 0 0 0 0 -4.77853 4.77853 0 0. 9.
 15 1 1 2 0 0 2.00375 -0.473053 4.17332 4.98128 1.7768 0. 1
 -15 1 1 2 0 0 -2.00375 0.473053 -3.95185 4.79726 1.7768 0. -1
</event>
<event>
 4 80 1 -1 -1 -1
 11 -1 0 0 0 0 0 0 5 5 0 0. 9.
 -11 -1 0 0 0 0 0 0 -5 5 0 0. 9.
 15 1 1 2 0 0 1.14728 2.92251 3.46193 5 1.7768 0. -1
 -15 1 1 2 0 0 -1.14728 -2.92251 -3.46193 5 1.7768 0. 1
</event>
<event>
 4 80 1 -1 -1 -1
 11 -1 0 0 0 0 0 0 5 5 0 0. 9.
 -11 -1 0 0 0 0 0 0 -4.99958 4.99958 0 0. 9.
 15 1 1 2 0 0 4.56984 0.361603 0.909008 4.99983 1.7768 0. -1
 -15 1 1 2 0 0 -4.56984 -0.361603 -0.908583 4.99975 1.7768 0. 1
</event>
<event>
 4 80 1 -1 -1 -1
 11 -1 0 0 0 0 0 0 5 5 0 0. 9.
 -11 -1 0 0 0 0 0 0 -5 5 0 0. 9.
 15 1 1 2 0 0 4.12716 -0.275289 2.17554 5 1.7768 0. 1
 -15 1 1 2 0 0 -4.12716 0.275289 -2.17554 5 1.7768 0. -1
</event>
<event>
 4 80 1 -1 -1 -1
 11 -1 0 0 0 0 0 0 5 5 0 0. 9.
 -11 -1 0 0 0 0 0 0 -2.34191 2.34191 0 0. 9.
 15 1 1 2 0 0 -1.84308 0.584404 -1.02456 2.81885 1.7768 0. 1
 -15 1 1 2 0 0 1.84308 -0.584404 3.68265 4.52306 1.7768 0. -1
</event>
<event>
 4 80 1 -1 -1 -1
 11 -1 0 0 0 0 0 0 5 5 0 0. 9.
 -11 -1 0 0 0 0 0 0 -4.93627 4.93627 0 0. 9.
 15 1 1 2 0 0 0.986172 -0.188105 -4.49765 4.93908 1.7768 0. -1
 -15 1 1 2 0 0 -0.986172 0.188105 4.56138 4.99719 1.7768 0. 1
</event>
<event>
 4 80 1 -1 -1 -1
 11 -1 0 0 0 0 0 0 5 5 0 0. 9.
 -11 -1 0 0 0 0 0 0 -5 5 0 0. 9.
 15 1 1 2 0 0 4.13215 1.43706 1.64391 5 1.7768 0. -1
 -15 1 1 2 0 0 -4.13215 -1.43706 -1.64391 5 1.7768 0. 1
</event>
<event>
 4 80 1 -1 -1 -1
 11 -1 0 0 0 0 0 0 4.99822 4.99822 0 0. 9.
 -11 -1 0 0 0 0 0 0 -5 5 0 0. 9.
 15 1 1 2 0 0 3.23484 2.25789 -2.50511 4.99956 1.7768 0. 1
 -15 1 1 2 0 0 -3.23484 -2.25789 2.50333 4.99866 1.7768 0. -1
</event>
<event>
 4 80 1 -1 -1 -1
 11 -1 0 0 0 0 0 0 5 5 0 0. 9.
 -11 -1 0 0 0 0 0 0 -1.70654 1.70654 0 0. 9.
 15 1 1 2 0 0 1.57513 1.3573 0.469508 2.77515 1.7768 0. 1
 -15 1 1 2 0 0 -1.57513 -1.3573 2.82396 3.93138 1.7768 0. -1
</event>
<event>
 4 80 1 -1 -1 -1
 11 -1 0 0 0 0 0 0 5 5 0 0. 9.
 -11 -1 0 0 0 0 0 0 -5 5 0 0. 9.
 15 1 1 2 0 0 -1.00132 2.70901 3.67436 5 1.7768 0. -1
 -15 1 1 2 0 0 1.00132 -2.70901 -3.67436 5 1.7768 0. 1
</event>
<event>
 4 80 1 -1 -1 -1
 11 -1 0 0 0 0 0 0 5 5 0 0. 9.
 -11 -1 0 0 0 0 0 0 -4.93472 4.93472 0 0. 9.
 15 1 1 2 0 0 -1.42832 -1.21287 -4.21065 4.93948 1.7768 0. -1
 -15 1 1 2 0 0 1.42832 1.21287 4.27593 4.99524 1.7768 0. 1
</event>
<event>
 4 80 1 -1 -1 -1
 11 -1 0 0 0 0 0 0 4.99995 4.99995 0 0. 9.
 -11 -1 0 0 0 0 0 0 -5 5 0 0. 9.
 15 1 1 2 0 0 -2.75268 -1.5373 3.44983 4.99996 1.7768 0. 1
 -15 1 1 2 0 0 2.75268 1.5373 -3.44988 4.99999 1.7768 0. -1
</event>
<event>
 4 80 1 -1 -1 -1
 11 -1 0 0 0 0 0 0 1.36555 1.36555 0 0. 9.
 -11 -1 0 0 0 0 0 0 -4.99809 4.99809 0 0. 9.
 15 1 1 2 0 0 0.867356 -1.33372 -0.517998 2.44073 1.7768 0. 1
 -15 1 1 2 0 0 -0.867356 1.33372 -3.11454 3.92291 1.7768 0. -1
</event>
<event>
 4 80 1 -1 -1 -1
 11 -1 0 0 0 0 0 0 4.99245 4.99245 0 0. 9.
 -11 -1 0 0 0 0 0 0 -5 5 0 0. 9.
 15 1 1 2 0 0 2.27813 2.5556 3.17168 4.99383 1.7768 0. -1
 -15 1 1 2 0 0 -2.27813 -2.5556 -3.17923 4.99862 1.7768 0. 1
</event>
<event>
 4 80 1 -1 -1 -1
 11 -1 0 0 0 0 0 0 5 5 0 0. 9.
 -11 -1 0 0 0 0 0 0 -5 5 0 0. 9.
 15 1 1 2 0 0 -0.678761 1.51652 4.36826 5 1.7768 0. 1
 -15 1 1 2 0 0 0.678761 -1.51652 -4.36826 5 1.7768 0. -1
</event>
<event>
 4 80 1 -1 -1 -1
 11 -1 0 0 0 0 0 0 5 5 0 0. 9.
 -11 -1 0 0 0 0 0 0 -5 5 0 0. 9.
 15 1 1 2 0 0 2.20069 1.78091 3.71855 5 1.7768 0. -1
 -15 1 1 2 0 0 -2.20069 -1.78091 -3.71854 5 1.7768 0. 1
</event>
<event>
 4 80 1 -1 -1 -1
 11 -1 0 0 0 0 0 0 5 5 0 0. 9.
 -11 -1 0 0 0 0 0 0 -5 5 0 0. 9.
 15 1 1 2 0 0 4.53201 1.12873 0.170566 5 1.7768 0. -1
 -15 1 1 2 0 0 -4.53201 -1.12873 -0.170566 5 1.7768 0. 1
</event>
<event>
 4 80 1 -1 -1 -1
 11 -1 0 0 0 0 0 0 5 5 0 0. 9.
 -11 -1 0 0 0 0 0 0 -5 5 0 0. 9.
 15 1 1 2 0 0 -0.0722022 1.99278 4.22681 5 1.7768 0. -1
 -15 1 1 2 0 0 0.0722022 -1.99278 -4.22681 5 1.7768 0. 1
</event>
<event>
 4 80 1 -1 -1 -1
 11 -1 0 0 0 0 0 0 5 5 0 0. 9.
 -11 -1 0 0 0 0 0 0 -5 5 0 0. 9.
 15 1 1 2 0 0 -3.65675 0.951771 -2.75037 5 1.7768 0. -1
 -15 1 1 2 0 0 3.65675 -0.951771 2.75037 5 1.7768 0. 1
</event>
<event>
 4 80 1 -1 -1 -1
 11 -1 0 0 0 0 0 0 5 5 0 0. 9.
 -11 -1 0 0 0 0 0 0 -4.99958 4.99958 0 0. 9.
 15 1 1 2 0 0 -3.25928 -3.34826 -0.0796316 4.99979 1.7768 0. 1
 -15 1 1 2 0 0 3.25928 3.34826 0.0800535 4.99979 1.7768 0. -1
</event>
<event>
 4 80 1 -1 -1 -1
 11 -1 0 0 0 0 0 0 1.11436 1.11436 0 0. 9.
 -11 -1 0 0 0 0 0 0 -5 5 0 0. 9.
 15 1 1 2 0 0 0.714043 -0.756364 -3.43766 4.00714 1.7768 0. -1
 -15 1 1 2 0 0 -0.714043 0.756364 -0.447988 2.10722 1.7768 0. 1
</event>
<event>
 4 80 1 -1 -1 -1
 11 -1 0 0 0 0 0 0 4.99995 4.99995 0 0. 9.
 -11 -1 0 0 0 0 0 0 -5 5 0 0. 9.
 15 1 1 2 0 0 -4.55829 -0.429011 -0.938083 4.99998 1.7768 0. -1
 -15 1 1 2 0 0 4.55829 0.429011 0.938031 4.99997 1.7768 0. 1
</event>
<event>
 4 80 1 -1 -1 -1
 11 -1 0 0 0 0 0 0 5 5 0 0. 9.
 -11 -1 0 0 0 0 0 0 -5 5 0 0. 9.
 15 1 1 2 0 0 -0.0705603 2.142 4.15321 5 1.7768 0. -1
 -15 1 1 2 0 0 0.0705603 -2.142 -4.15321 5 1.7768 0. 1
</event>
<event>
 4 80 1 -1 -1 -1
 11 -1 0 0 0 0 0 0 5 5 0 0. 9.
 -11 -1 0 0 0 0 0 0 -5 5 0 0. 9.
 15 1 1 2 0 0 0.393067 -2.45386 -3.95807 5 1.7768 0. 1
 -15 1 1 2 0 0 -0.393067 2.45386 3.95807 5 1.7768 0. -1
</event>
<event>
 4 80 1 -1 -1 -1
 11 -1 0 0 0 0 0 0 4.99992 4.99992 0 0. 9.
 -11 -1 0 0 0 0 0 0 -5 5 0 0. 9.
 15 1 1 2 0 0 3.74335 -2.63886 0.930352 4.99995 1.7768 0. 1
 -15 1 1 2 0 0 -3.74335 2.63886 -0.930429 4.99997 1.7768 0. -1
</event>
<event>
 4 80 1 -1 -1 -1
 11 -1 0 0 0 0 0 0 5 5 0 0. 9.
 -11 -1 0 0 0 0 0 0 -4.99975 4.99975 0 0. 9.
 15 1 1 2 0 0 -1.24597 0.831832 4.42693 4.99999 1.7768 0. 1
 -15 1 1 2 0 0 1.24597 -0.831832 -4.42668 4.99976 1.7768 0. -1
</event>
<event>
 4 80 1 -1 -1 -1
 11 -1 0 0 0 0 0 0 4.80168 4.80168 0 0. 9.
 -11 -1 0 0 0 0 0 0 -4.99977 4.99977 0 0. 9.
 15 1 1 2 0 0 1.36156 -4.33919 -0.507936 4.90899 1.7768 0. 1
 -15 1 1 2 0 0 -1.36156 4.33919 0.309846 4.89246 1.7768 0. -1
</event>
<event>
 4 80 1 -1 -1 -1
 11 -1 0 0 0 0 0 0 5 5 0 0. 9.
 -11 -1 0 0 0 0 0 0 -4.99942 4.99942 0 0. 9.
 15 1 1 2 0 0 -0.303919 -4.3041 1.79521 4.99982 1.7768 0. -1
 -15 1 1 2 0 0 0.303919 4.3041 -1.79464 4.99961 1.7768 0. 1
</event>
<event>
 4 80 1 -1 -1 -1
 11 -1 0 0 0 0 0 0 4.98553 4.98553 0 0. 9.
 -11 -1 0 0 0 0 0 0 -5 5 0 0. 9.
 15 1 1 2 0 0 -2.54863 0.0446286 3.90076 4.9871 1.7768 0. -1
 -15 1 1 2 0 0 2.54863 -0.0446286 -3.91524 4.99843 1.7768 0. 1
</event>
<event>
 4 80 1 -1 -1 -1
 11 -1 0 0 0 0 0 0 4.79917 4.79917 0 0. 9.
 -11 -1 0 0 0 0 0 0 -5 5 0 0. 9.
 15 1 1 2 0 0 -2.55769 -3.60564 1.03811 4.87625 1.7768 0. 1
 -15 1 1 2 0 0 2.55769 3.60564 -1.23894 4.92292 1.7768 0. -1
</event>
<event>
 4 80 1 -1 -1 -1
 11 -1 0 0 0 0 0 0 5 5 0 0. 9.
 -11 -1 0 0 0 0 0 0 -5 5 0 0. 9.
 15 1 1 2 0 0 1.26949 -4.34837 1.14995 5 1.7768 0. -1
 -15 1 1 2 0 0 -1.26949 4.34837 -1.14995 5 1.7768 0. 1
</event>
<event>
 4 80 1 -1 -1 -1
 11 -1 0 0 0 0 0 0 5 5 0 0. 9.
 -11 -1 0 0 0 0 0 0 -5 5 0 0. 9.
 15 1 1 2 0 0 1.71522 0.479745 -4.32089 5 1.7768 0. 1
 -15 1 1 2 0 0 -1.71522 -0.479745 4.32089 5 1.7768 0. -1
</event>
<event>
 4 80 1 -1 -1 -1
 11 -1 0 0 0 0 0 0 5 5 0 0. 9.
 -11 -1 0 0 0 0 0 0 -5 5 0 0. 9.
 15 1 1 2 0 0 0.978517 -1.50308 -4.31573 5 1.7768 0. 1
 -15 1 1 2 0 0 -0.978517 1.50308 4.31573 5 1.7768 0. -1
</event>
<event>
 4 80 1 -1 -1 -1
 11 -1 0 0 0 0 0 0 5 5 0 0. 9.
 -11 -1 0 0 0 0 0 0 -4.9999 4.9999 0 0. 9.
 15 1 1 2 0 0 -1.01054 3.53569 2.8844 4.99998 1.7768 0. -1
 -15 1 1 2 0 0 1.01054 -3.53569 -2.8843 4.99992 1.7768 0. 1
</event>
<event>
 4 80 1 -1 -1 -1
 11 -1 0 0 0 0 0 0 4.99957 4.99957 0 0. 9.
 -11 -1 0 0 0 0 0 0 -4.76093 4.76093 0 0. 9.
 15 1 1 2 0 0 -4.52659 -0.364977 0.266629 4.88385 1.7768 0. 1
 -15 1 1 2 0 0 4.52659 0.364977 -0.0279921 4.87665 1.7768 0. -1
</event>
<event>
 4 80 1 -1 -1 -1
 11 -1 0 0 0 0 0 0 4.98918 4.98918 0 0. 9.
 -11 -1 0 0 0 0 0 0 -5 5 0 0. 9.
 15 1 1 2 0 0 3.05999 1.92396 2.94807 4.99139 1.7768 0. 1
 -15 1 1 2 0 0 -3.05999 -1.92396 -2.95889 4.99779 1.7768 0. -1
</event>
<event>
 4 80 1 -1 -1 -1
 11 -1 0 0 0 0 0 0 5 5 0 0. 9.
 -11 -1 0 0 0 0 0 0 -4.99228 4.99228 0 0. 9.
 15 1 1 2 0 0 -4.61325 0.385912 0.614298 4.99661 1.7768 0. -1
 -15 1 1 2 0 0 4.61325 -0.385912 -0.606577 4.99567 1.7768 0. 1
</event>
<event>
 4 80 1 -1 -1 -1
 11 -1 0 0 0 0 0 0 2.32534 2.32534 0 0. 9.
 -11 -1 0 0 0 0 0 0 -5 5 0 0. 9.
 15 1 1 2 0 0 -1.49783 -1.96463 0.314816 3.05943 1.7768 0. -1
 -15 1 1 2 0 0 1.49783 1.96463 -2.98948 4.26591 1.7768 0. 1
</event>
<event>
 4 80 1 -1 -1 -1
 11 -1 0 0 0 0 0 0 4.9986 4.9986 0 0. 9.
 -11 -1 0 0 0 0 0 0 -5 5 0 0. 9.
 15 1 1 2 0 0 1.7903 0.203904 4.31074 4.9987 1.7768 0. 1
 -15 1 1 2 0 0 -1.7903 -0.203904 -4.31214 4.9999 1.7768 0. -1
</event>
<event>
 4 80 1 -1 -1 -1
 11 -1 0 0 0 0 0 0 3.80237 3.80237 0 0. 9.
 -11 -1 0 0 0 0 0 0 -5 5 0 0. 9.
 15 1 1 2 0 0 2.0206 1.03039 2.70446 3.95175 1.7768 0. 1
 -15 1 1 2 0 0 -2.0206 -1.03039 -3.90208 4.85062 1.7768 0. -1
</event>
<event>
 4 80 1 -1 -1 -1
 11 -1 0 0 0 0 0 0 5 5 0 0. 9.
 -11 -1 0 0 0 0 0 0 -5 5 0 0. 9.
 15 1 1 2 0 0 -4.02453 2.2915 -0.628034 5 1.7768 0. 1
 -15 1 1 2 0 0 4.02453 -2.2915 0.628032 5 1.7768 0. -1
</event>
<event>
 4 80 1 -1 -1 -1
 11 -1 0 0 0 0 0 0 5 5 0 0. 9.
 -11 -1 0 0 0 0 0 0 -4.85564 4.85564 0 0. 9.
 15 1 1 2 0 0 2.10562 1.69917 -3.643 4.8734 1.7768 0. 1
 -15 1 1 2 0 0 -2.10562 -1.69917 3.78737 4.98224 1.7768 0. -1
</event>
<event>
 4 80 1 -1 -1 -1
 11 -1 0 0 0 0 0 0 4.75642 4.75642 0 0. 9.
 -11 -1 0 0 0 0 0 0 -5 5 0 0. 9.
 15 1 1 2 0 0 4.10554 -0.346297 -2.03262 4.92592 1.7768 0. 1
 -15 1 1 2 0 0 -4.10554 0.346297 1.78905 4.83051 1.7768 0. -1
</event>
<event>
 4 80 1 -1 -1 -1
 11 -1 0 0 0 0 0 0 5 5 0 0. 9.
 -11 -1 0 0 0 0 0 0 -5 5 0 0. 9.
 15 1 1 2 0 0 2.02246 -0.458727 -4.18826 5 1.7768 0. -1
 -15 1 1 2 0 0 -2.02246 0.458727 4.18826 5 1.7768 0. 1
</event>
<event>
 4 80 1 -1 -1 -1
 11 -1 0 0 0 0 0 0 4.05135 4.05135 0 0. 9.
 -11 -1 0 0 0 0 0 0 -3.24111 3.24111 0 0. 9.
 15 1 1 2 0 0 0.961222 -2.35003 2.29473 3.85618 1.7768 0. 1
 -15 1 1 2 0 0 -0.961222 2.35003 -1.48448 3.43628 1.7768 0. -1
</event>
<event>
 4 80 1 -1 -1 -1
 11 -1 0 0 0 0 0 0 4.94808 4.94808 0 0. 9.
 -11 -1 0 0 0 0 0 0 -4.9942 4.9942 0 0. 9.
 15 1 1 2 0 0 2.63632 -3.81815 0.136792 4.9704 1.7768 0. 1
 -15 1 1 2 0 0 -2.63632 3.81815 -0.182913 4.97188 1.7768 0. -1
</event>
<event>
 4 80 1 -1 -1 -1
 11 -1 0 0 0 0 0 0 4.94533 4.94533 0 0. 9.
 -11 -1 0 0 0 0 0 0 -4.99999 4.99999 0 0. 9.
 15 1 1 2 0 0 -3.22121 -0.0794387 3.31732 4.95427 1.7768 0. -1
 -15 1 1 2 0 0 3.22121 0.0794387 -3.37198 4.99104 1.7768 0. 1
</event>
<event>
 4 80 1 -1 -1 -1
 11 -1 0 0 0 0 0 0 4.99999 4.99999 0 0. 9.
 -11 -1 0 0 0 0 0 0 -3.50281 3.50281 0 0. 9.
 15 1 1 2 0 0 -3.0251 2.26657 0.484196 4.20485 1.7768 0. 1
 -15 1 1 2 0 0 3.0251 -2.26657 1.01299 4.29796 1.7768 0. -1
</event>
<event>
 4 80 1 -1 -1 -1
 11 -1 0 0 0 0 0 0 5 5 0 0. 9.
 -11 -1 0 0 0 0 0 0 -5 5 0 0. 9.
 15 1 1 2 0 0 3.44974 -0.516321 3.11047 5 1.7768 0. -1
 -15 1 1 2 0 0 -3.44974 0.516321 -3.11047 5 1.7768 0. 1
</event>
<event>
 4 80 1 -1 -1 -1
 11 -1 0 0 0 0 0 0 4.97458 4.97458 0 0. 9.
 -11 -1 0 0 0 0 0 0 -4.99993 4.99993 0 0. 9.
 15 1 1 2 0 0 -2.80438 -2.45335 2.78579 4.98014 1.7768 0. 1
 -15 1 1 2 0 0 2.80438 2.45335 -2.81113 4.99436 1.7768 0. -1
</event>
<event>
 4 80 1 -1 -1 -1
 11 -1 0 0 0 0 0 0 4.94819 4.94819 0 0. 9.
 -11 -1 0 0 0 0 0 0 -4.31587 4.31587 0 0. 9.
 15 1 1 2 0 0 -2.89265 -2.3127 -1.80585 4.48719 1.7768 0. -1
 -15 1 1 2 0 0 2.89265 2.3127 2.43817 4.77687 1.7768 0. 1
</event>
<event>
 4 80 1 -1 -1 -1
 11 -1 0 0 0 0 0 0 5 5 0 0. 9.
 -11 -1 0 0 0 0 0 0 -2.86142 2.86142 0 0. 9.
 15 1 1 2 0 0 0.602402 -0.642894 -2.27767 3.02022 1.7768 0. 1
 -15 1 1 2 0 0 -0.602402 0.642894 4.41625 4.8412 1.7768 0. -1
</event>
<event>
 4 80 1 -1 -1 -1
 11 -1 0 0 0 0 0 0 3.64214 3.64214 0 0. 9.
 -11 -1 0 0 0 0 0 0 -4.99965 4.99965 0 0. 9.
 15 1 1 2 0 0 -3.30905 -2.02397 -0.753184 4.33259 1.7768 0. -1
 -15 1 1 2 0 0 3.30905 2.02397 -0.604332 4.30921 1.7768 0. 1
</event>
<event>
 4 80 1 -1 -1 -1
 11 -1 0 0 0 0 0 0 5 5 0 0. 9.
 -11 -1 0 0 0 0 0 0 -5 5 0 0. 9.
 15 1 1 2 0 0 -4.22634 -1.71609 1.01753 5 1.7768 0. -1
 -15 1 1 2 0 0 4.22634 1.71609 -1.01753 5 1.7768 0. 1
</event>
<event>
 4 80 1 -1 -1 -1
 11 -1 0 0 0 0 0 0 5 5 0 0. 9.
 -11 -1 0 0 0 0 0 0 -5 5 0 0. 9.
 15 1 1 2 0 0 -0.692818 4.03476 -2.25456 5 1.7768 0. -1
 -15 1 1 2 0 0 0.692818 -4.03476 2.25456 5 1.7768 0. 1
</event>
<event>
 4 80 1 -1 -1 -1
 11 -1 0 0 0 0 0 0 4.55058 4.55058 0 0. 9.
 -11 -1 0 0 0 0 0 0 -1.64617 1.64617 0 0. 9.
 15 1 1 2 0 0 0.64179 1.79645 0.509027 2.65631 1.7768 0. 1
 -15 1 1 2 0 0 -0.64179 -1.79645 2.39538 3.54044 1.7768 0. -1
</event>
<event>
 4 80 1 -1 -1 -1
 11 -1 0 0 0 0 0 0 4.99999 4.99999 0 0. 9.
 -11 -1 0 0 0 0 0 0 -5 5 0 0. 9.
 15 1 1 2 0 0 -1.12078 1.78535 -4.17117 5 1.7768 0. 1
 -15 1 1 2 0 0 1.12078 -1.78535 4.17116 4.99999 1.7768 0. -1
</event>
<event>
 4 80 1 -1 -1 -1
 11 -1 0 0 0 0 0 0 5 5 0 0. 9.
 -11 -1 0 0 0 0 0 0 -5 5 0 0. 9.
 15 1 1 2 0 0 -4.45792 -0.945643 1.03681 5 1.7768 0. -1
 -15 1 1 2 0 0 4.45792 0.945643 -1.03681 5 1.7768 0. 1
</event>
<event>
 4 80 1 -1 -1 -1
 11 -1 0 0 0 0 0 0 5 5 0 0. 9.
 -11 -1 0 0 0 0 0 0 -4.99968 4.99968 0 0. 9.
 15 1 1 2 0 0 -3.87663 1.57434 -2.08164 4.99977 1.7768 0. -1
 -15 1 1 2 0 0 3.87663 -1.57434 2.08195 4.99991 1.7768 0. 1
</event>
<event>
 4 80 1 -1 -1 -1
 11 -1 0 0 0 0 0 0 5 5 0 0. 9.
 -11 -1 0 0 0 0 0 0 -5 5 0 0. 9.
 15 1 1 2 0 0 -3.00835 1.86164 3.05392 5 1.7768 0. -1
 -15 1 1 2 0 0 3.00835 -1.86164 -3.05392 5 1.7768 0. 1
</event>
<event>
 4 80 1 -1 -1 -1
 11 -1 0 0 0 0 0 0 4.99998 4.99998 0 0. 9.
 -11 -1 0 0 0 0 0 0 -4.98165 4.98165 0 0. 9.
 15 1 1 2 0 0 1.32733 4.18785 -1.55626 4.98794 1.7768 0. -1
 -15 1 1 2 0 0 -1.32733 -4.18785 1.57459 4.99369 1.7768 0. 1
</event>
<event>
 4 80 1 -1 -1 -1
 11 -1 0 0 0 0 0 0 4.66493 4.66493 0 0. 9.
 -11 -1 0 0 0 0 0 0 -4.99851 4.99851 0 0. 9.
 15 1 1 2 0 0 -2.37354 0.794971 -3.89652 4.96047 1.7768 0. -1
 -15 1 1 2 0 0 2.37354 -0.794971 3.56293 4.70297 1.7768 0. 1
</event>
<event>
 4 80 1 -1 -1 -1
 11 -1 0 0 0 0 0 0 5 5 0 0. 9.
 -11 -1 0 0 0 0 0 0 -4.99988 4.99988 0 0. 9.
 15 1 1 2 0 0 0.896448 4.27942 1.65071 4.99996 1.7768 0. 1
 -15 1 1 2 0 0 -0.896448 -4.27942 -1.65059 4.99992 1.7768 0. -1
</event>
<event>
 4 80 1 -1 -1 -1
 11 -1 0 0 0 0 0 0 5 5 0 0. 9.
 -11 -1 0 0 0 0 0 0 -5 5 0 0. 9.
 15 1 1 2 0 0 -1.85775 -4.20721 0.830906 5 1.7768 0. 1
 -15 1 1 2 0 0 1.85775 4.20721 -0.830906 5 1.7768 0. -1
</event>
<event>
 4 80 1 -1 -1 -1
 11 -1 0 0 0 0 0 0 2.37918 2.37918 0 0. 9.
 -11 -1 0 0 0 0 0 0 -5 5 0 0. 9.
 15 1 1 2 0 0 1.16398 -2.27079 -2.90674 4.25655 1.7768 0. -1
 -15 1 1 2 0 0 -1.16398 2.27079 0.28592 3.12263 1.7768 0. 1
</event>
<event>
 4 80 1 -1 -1 -1
 11 -1 0 0 0 0 0 0 5 5 0 0. 9.
 -11 -1 0 0 0 0 0 0 -4.99906 4.99906 0 0. 9.
 15 1 1 2 0 0 -0.695074 -1.84172 4.23869 4.99993 1.7768 0. 1
 -15 1 1 2 0 0 0.695074 1.84172 -4.23775 4.99913 1.7768 0. -1
</event>
<event>
 4 80 1 -1 -1 -1
 11 -1 0 0 0 0 0 0 5 5 0 0. 9.
 -11 -1 0 0 0 0 0 0 -4.99996 4.99996 0 0. 9.
 15 1 1 2 0 0 4.65122 0.170857 0.423154 4.99998 1.7768 0. -1
 -15 1 1 2 0 0 -4.65122 -0.170857 -0.423113 4.99998 1.7768 0. 1
</event>
<event>
 4 80 1 -1 -1 -1
 11 -1 0 0 0 0 0 0 5 5 0 0. 9.
 -11 -1 0 0 0 0 0 0 -3.95401 3.95401 0 0. 9.
 15 1 1 2 0 0 -2.1198 -3.36243 1.43078 4.58305 1.7768 0. 1
 -15 1 1 2 0 0 2.1198 3.36243 -0.384784 4.37096 1.7768 0. -1
</event>
<event>
 4 80 1 -1 -1 -1
 11 -1 0 0 0 0 0 0 5 5 0 0. 9.
 -11 -1 0 0 0 0 0 0 -4.9987 4.9987 0 0. 9.
 15 1 1 2 0 0 -1.46958 -2.42871 3.71245 4.99983 1.7768 0. 1
 -15 1 1 2 0 0 1.46958 2.42871 -3.71115 4.99887 1.7768 0. -1
</event>
<event>
 4 80 1 -1 -1 -1
 11 -1 0 0 0 0 0 0 4.99983 4.99983 0 0. 9.
 -11 -1 0 0 0 0 0 0 -4.99942 4.99942 0 0. 9.
 15 1 1 2 0 0 -3.55108 2.07247 -2.22087 4.99953 1.7768 0. 1
 -15 1 1 2 0 0 3.55108 -2.07247 2.22128 4.99971 1.7768 0. -1
</event>
<event>
 4 80 1 -1 -1 -1
 11 -1 0 0 0 0 0 0 5 5 0 0. 9.
 -11 -1 0 0 0 0 0 0 -3.37327 3.37327 0 0. 9.
 15 1 1 2 0 0 0.30147 1.20389 4.36944 4.8775 1.7768 0. -1
 -15 1 1 2 0 0 -0.30147 -1.20389 -2.74271 3.49578 1.7768 0. 1
</event>
<event>
 4 80 1 -1 -1 -1
 11 -1 0 0 0 0 0 0 4.99717 4.99717 0 0. 9.
 -11 -1 0 0 0 0 0 0 -5 5 0 0. 9.
 15 1 1 2 0 0 3.83199 2.35074 1.27059 4.99823 1.7768 0. -1
 -15 1 1 2 0 0 -3.83199 -2.35074 -1.27341 4.99895 1.7768 0. 1
</event>
<event>
 4 80 1 -1 -1 -1
 11 -1 0 0 0 0 0 0 5 5 0 0. 9.
 -11 -1 0 0 0 0 0 0 -4.9998 4.9998 0 0. 9.
 15 1 1 2 0 0 3.73241 2.15983 -1.80143 4.99987 1.7768 0. -1
 -15 1 1 2 0 0 -3.73241 -2.15983 1.80162 4.99994 1.7768 0. 1
</event>
<event>
 4 80 1 -1 -1 -1
 11 -1 0 0 0 0 0 0 5 5 0 0. 9.
 -11 -1 0 0 0 0 0 0 -4.99944 4.99944 0 0. 9.
 15 1 1 2 0 0 0.360538 -0.329187 4.64798 4.99998 1.7768 0. 1
 -15 1 1 2 0 0 -0.360538 0.329187 -4.64742 4.99946 1.7768 0. -1
</event>
<event>
 4 80 1 -1 -1 -1
 11 -1 0 0 0 0 0 0 4.91906 4.91906 0 0. 9.
 -11 -1 0 0 0 0 0 0 -4.99795 4.99795 0 0. 9.
 15 1 1 2 0 0 4.18558 1.38906 -1.44622 4.9697 1.7768 0. -1
 -15 1 1 2 0 0 -4.18558 -1.38906 1.36732 4.94731 1.7768 0. 1
</event>
<event>
 4 80 1 -1 -1 -1
 11 -1 0 0 0 0 0 0 5 5 0 0. 9.
 -11 -1 0 0 0 0 0 0 -4.88003 4.88003 0 0. 9.
 15 1 1 2 0 0 -1.65889 3.01382 3.12735 4.97726 1.7768 0. -1
 -15 1 1 2 0 0 1.65889 -3.01382 -3.00738 4.90277 1.7768 0. 1
</event>
<event>
 4 80 1 -1 -1 -1
 11 -1 0 0 0 0 0 0 4.26209 4.26209 0 0. 9.
 -11 -1 0 0 0 0 0 0 -5 5 0 0. 9.
 15 1 1 2 0 0 -2.74804 -0.146305 -3.63196 4.89101 1.7768 0. 1
 -15 1 1 2 0 0 2.74804 0.146305 2.89404 4.37108 1.7768 0. -1
</event>
<event>
 4 80 1 -1 -1 -1
 11 -1 0 0 0 0 0 0 5 5 0 0. 9.
 -11 -1 0 0 0 0 0 0 -5 5 0 0. 9.
 15 1 1 2 0 0 1.66616 1.48313 4.10688 5 1.7768 0. -1
 -15 1 1 2 0 0 -1.66616 -1.48313 -4.10688 5 1.7768 0. 1
</event>
<event>
 4 80 1 -1 -1 -1
 11 -1 0 0 0 0 0 0 2.23963 2.23963 0 0. 9.
 -11 -1 0 0 0 0 0 0 -4.98848 4.98848 0 0. 9.
 15 1 1 2 0 0 0.73229 -1.58771 1.03303 2.69851 1.7768 0. 1
 -15 1 1 2 0 0 -0.73229 1.58771 -3.78187 4.52961 1.7768 0. -1
</event>
<event>
 4 80 1 -1 -1 -1
 11 -1 0 0 0 0 0 0 4.99999 4.99999 0 0. 9.
 -11 -1 0 0 0 0 0 0 -5 5 0 0. 9.
 15 1 1 2 0 0 -0.0527716 -1.699 -4.35349 5 1.7768 0. 1
 -15 1 1 2 0 0 0.0527716 1.699 4.35348 4.99999 1.7768 0. -1
</event>
<event>
 4 80 1 -1 -1 -1
 11 -1 0 0 0 0 0 0 4.82015 4.82015 0 0. 9.
 -11 -1 0 0 0 0 0 0 -5 5 0 0. 9.
 15 1 1 2 0 0 3.69022 -2.10791 -1.78785 4.94117 1.7768 0. 1
 -15 1 1 2 0 0 -3.69022 2.10791 1.608 4.87898 1.7768 0. -1
</event>
<event>
 4 80 1 -1 -1 -1
 11 -1 0 0 0 0 0 0 5 5 0 0. 9.
 -11 -1 0 0 0 0 0 0 -3.57283 3.57283 0 0. 9.
 15 1 1 2 0 0 -0.201525 0.727273 4.5267 4.92121 1.7768 0. -1
 -15 1 1 2 0 0 0.201525 -0.727273 -3.09953 3.65162 1.7768 0. 1
</event>
<event>
 4 80 1 -1 -1 -1
 11 -1 0 0 0 0 0 0 4.98602 4.98602 0 0. 9.
 -11 -1 0 0 0 0 0 0 -5 5 0 0. 9.
 15 1 1 2 0 0 2.57208 -3.89315 -0.0199111 4.99303 1.7768 0. 1
 -15 1 1 2 0 0 -2.57208 3.89315 0.0059322 4.99299 1.7768 0. -1
</event>
<event>
 4 80 1 -1 -1 -1
 11 -1 0 0 0 0 0 0 5 5 0 0. 9.
 -11 -1 0 0 0 0 0 0 -5 5 0 0. 9.
 15 1 1 2 0 0 -4.55058 0.70639 0.797192 5 1.7768 0. -1
 -15 1 1 2 0 0 4.55058 -0.70639 -0.797191 5 1.7768 0. 1
</event>
<event>
 4 80 1 -1 -1 -1
 11 -1 0 0 0 0 0 0 5 5 0 0. 9.
 -11 -1 0 0 0 0 0 0 -5 5 0 0. 9.
 15 1 1 2 0 0 0.488427 -1.57095 4.37445 5 1.7768 0. -1
 -15 1 1 2 0 0 -0.488427 1.57095 -4.37445 5 1.7768 0. 1
</event>
<event>
 4 80 1 -1 -1 -1
 11 -1 0 0 0 0 0 0 5 5 0 0. 9.
 -11 -1 0 0 0 0 0 0 -3.65112 3.65112 0 0. 9.
 15 1 1 2 0 0 2.54477 0.869187 -2.16502 3.88283 1.7768 0. 1
 -15 1 1 2 0 0 -2.54477 -0.869187 3.5139 4.76829 1.7768 0. -1
</event>
<event>
 4 80 1 -1 -1 -1
 11 -1 0 0 0 0 0 0 5 5 0 0. 9.
 -11 -1 0 0 0 0 0 0 -4.47328 4.47328 0 0. 9.
 15 1 1 2 0 0 -0.664981 4.3071 0.728154 4.76248 1.7768 0. -1
 -15 1 1 2 0 0 0.664981 -4.3071 -0.201437 4.7108 1.7768 0. 1
</event>
<event>
 4 80 1 -1 -1 -1
 11 -1 0 0 0 0 0 0 3.64085 3.64085 0 0. 9.
 -11 -1 0 0 0 0 0 0 -4.9772 4.9772 0 0. 9.
 15 1 1 2 0 0 -1.79409 -3.24432 -1.78584 4.48233 1.7768 0. 1
 -15 1 1 2 0 0 1.79409 3.24432 0.449489 4.13571 1.7768 0. -1
</event>
<event>
 4 80 1 -1 -1 -1
 11 -1 0 0 0 0 0 0 5 5 0 0. 9.
 -11 -1 0 0 0 0 0 0 -5 5 0 0. 9.
 15 1 1 2 0 0 0.820783 -1.13408 4.45897 5 1.7768 0. -1
 -15 1 1 2 0 0 -0.820783 1.13408 -4.45897 5 1.7768 0. 1
</event>
<event>
 4 80 1 -1 -1 -1
 11 -1 0 0 0 0 0 0 5 5 0 0. 9.
 -11 -1 0 0 0 0 0 0 -4.99332 4.99332 0 0. 9.
 15 1 1 2 0 0 -0.818688 3.60283 -2.85293 4.99475 1.7768 0. 1
 -15 1 1 2 0 0 0.818688 -3.60283 2.8596 4.99857 1.7768 0. -1
</event>
<event>
 4 80 1 -1 -1 -1
 11 -1 0 0 0 0 0 0 5 5 0 0. 9.
 -11 -1 0 0 0 0 0 0 -5 5 0 0. 9.
 15 1 1 2 0 0 -4.30262 -1.42012 -1.14586 5 1.7768 0. 1
 -15 1 1 2 0 0 4.30262 1.42012 1.14586 5 1.7768 0. -1
</event>
<event>
 4 80 1 -1 -1 -1
 11 -1 0 0 0 0 0 0 4.99996 4.99996 0 0. 9.
 -11 -1 0 0 0 0 0 0 -4.99999 4.99999 0 0. 9.
 15 1 1 2 0 0 3.99409 2.02478 1.33771 4.99997 1.7768 0. 1
 -15 1 1 2 0 0 -3.99409 -2.02478 -1.33774 4.99997 1.7768 0. -1
</event>
<event>
 4 80 1 -1 -1 -1
 11 -1 0 0 0 0 0 0 4.99828 4.99828 0 0. 9.
 -11 -1 0 0 0 0 0 0 -4.53978 4.53978 0 0. 9.
 15 1 1 2 0 0 1.19525 -3.05024 3.1993 4.91181 1.7768 0. 1
 -15 1 1 2 0 0 -1.19525 3.05024 -2.74079 4.62626 1.7768 0. -1
</event>
<event>
 4 80 1 -1 -1 -1
 11 -1 0 0 0 0 0 0 4.37243 4.37243 0 0. 9.
 -11 -1 0 0 0 0 0 0 -5 5 0 0. 9.
 15 1 1 2 0 0 -2.34049 -1.28421 -3.72399 4.91456 1.7768 0. -1
 -15 1 1 2 0 0 2.34049 1.28421 3.09642 4.45787 1.7768 0. 1
</event>
<event>
 4 80 1 -1 -1 -1
 11 -1 0 0 0 0 0 0 4.99976 4.99976 0 0. 9.
 -11 -1 0 0 0 0 0 0 -4.94764 4.94764 0 0. 9.
 15 1 1 2 0 0 4.03879 2.22776 0.577965 4.97659 1.7768 0. 1
 -15 1 1 2 0 0 -4.03879 -2.22776 -0.525843 4.97081 1.7768 0. -1
</event>
<event>
 4 80 1 -1 -1 -1
 11 -1 0 0 0 0 0 0 4.99279 4.99279 0 0. 9.
 -11 -1 0 0 0 0 0 0 -4.99999 4.99999 0 0. 9.
 15 1 1 2 0 0 -0.672531 -3.9655 -2.37609 4.9981 1.7768 0. -1
 -15 1 1 2 0 0 0.672531 3.9655 2.36889 4.99468 1.7768 0. 1
</event>
<event>
 4 80 1 -1 -1 -1
 11 -1 0 0 0 0 0 0 4.99624 4.99624 0 0. 9.
 -11 -1 0 0 0 0 0 0 -5 5 0 0. 9.
 15 1 1 2 0 0 2.90006 3.11099 -1.93446 4.99884 1.7768 0. 1
 -15 1 1 2 0 0 -2.90006 -3.11099 1.9307 4.99739 1.7768 0. -1
</event>
<event>
 4 80 1 -1 -1 -1
 11 -1 0 0 0 0 0 0 4.86435 4.86435 0 0. 9.
 -11 -1 0 0 0 0 0 0 -5 5 0 0. 9.
 15 1 1 2 0 0 2.60667 1.51763 3.40613 4.88441 1.7768 0. 1
 -15 1 1 2 0 0 -2.60667 -1.51763 -3.54178 4.97995 1.7768 0. -1
</event>
<event>
 4 80 1 -1 -1 -1
 11 -1 0 0 0 0 0 0 4.99753 4.99753 0 0. 9.
 -11 -1 0 0 0 0 0 0 -5 5 0 0. 9.
 15 1 1 2 0 0 -0.687554 3.0073 3.5078 4.9979 1.7768 0. -1
 -15 1 1 2 0 0 0.687554 -3.0073 -3.51027 4.99963 1.7768 0. 1
</event>
<event>
 4 80 1 -1 -1 -1
 11 -1 0 0 0 0 0 0 5 5 0 0. 9.
 -11 -1 0 0 0 0 0 0 -3.00042 3.00042 0 0. 9.
 15 1 1 2 0 0 0.869584 2.37529 -1.41042 3.39782 1.7768 0. -1
 -15 1 1 2 0 0 -0.869584 -2.37529 3.41 4.6026 1.7768 0. 1
</event>
<event>
 4 80 1 -1 -1 -1
 11 -1 0 0 0 0 0 0 5 5 0 0. 9.
 -11 -1 0 0 0 0 0 0 -1.86402 1.86402 0 0. 9.
 15 1 1 2 0 0 0.151768 -0.775672 -1.07748 2.22337 1.7768 0. -1
 -15 1 1 2 0 0 -0.151768 0.775672 4.21345 4.64065 1.7768 0. 1
</event>
<event>
 4 80 1 -1 -1 -1
 11 -1 0 0 0 0 0 0 5 5 0 0. 9.
 -11 -1 0 0 0 0 0 0 -5 5 0 0. 9.
 15 1 1 2 0 0 -0.316822 -4.65934 0.180133 5 1.7768 0. 1
 -15 1 1 2 0 0 0.316822 4.65934 -0.180133 5 1.7768 0. -1
</event>
<event>
 4 80 1 -1 -1 -1
 11 -1 0 0 0 0 0 0 5 5 0 0. 9.
 -11 -1 0 0 0 0 0 0 -5 5 0 0. 9.
 15 1 1 2 0 0 -1.64259 -2.66478 3.47032 5 1.7768 0. 1
 -15 1 1 2 0 0 1.64259 2.66478 -3.47032 5 1.7768 0. -1
</event>
<event>
 4 80 1 -1 -1 -1
 11 -1 0 0 0 0 0 0 5 5 0 0. 9.
 -11 -1 0 0 0 0 0 0 -5 5 0 0. 9.
 15 1 1 2 0 0 0.432087 2.16031 -4.12173 5 1.7768 0. 1
 -15 1 1 2 0 0 -0.432087 -2.16031 4.12173 5 1.7768 0. -1
</event>
<event>
 4 80 1 -1 -1 -1
 11 -1 0 0 0 0 0 0 4.9975 4.9975 0 0. 9.
 -11 -1 0 0 0 0 0 0 -4.99945 4.99945 0 0. 9.
 15 1 1 2 0 0 1.25655 4.08533 -1.8873 4.99885 1.7768 0. -1
 -15 1 1 2 0 0 -1.25655 -4.08533 1.88535 4.99811 1.7768 0. 1
</event>
<event>
 4 80 1 -1 -1 -1
 11 -1 0 0 0 0 0 0 4.92968 4.92968 0 0. 9.
 -11 -1 0 0 0 0 0 0 -5 5 0 0. 9.
 15 1 1 2 0 0 0.00717169 3.37032 -3.21826 4.98738 1.7768 0. 1
 -15 1 1 2 0 0 -0.00717169 -3.37032 3.14793 4.9423 1.7768 0. -1
</event>
<event>
 4 80 1 -1 -1 -1
 11 -1 0 0 0 0 0 0 4.98969 4.98969 0 0. 9.
 -11 -1 0 0 0 0 0 0 -1.09067 1.09067 0 0. 9.
 15 1 1 2 0 0 -0.813216 0.564523 3.43789 3.9946 1.7768 0. -1
 -15 1 1 2 0 0 0.813216 -0.564523 0.461134 2.08576 1.7768 0. 1
</event>
<event>
 4 80 1 -1 -1 -1
 11 -1 0 0 0 0 0 0 5 5 0 0. 9.
 -11 -1 0 0 0 0 0 0 -1.90187 1.90187 0 0. 9.
 15 1 1 2 0 0 1.02483 0.341546 -0.999074 2.30712 1.7768 0. 1
 -15 1 1 2 0 0 -1.02483 -0.341546 4.0972 4.59475 1.7768 0. -1
</event>
<event>
 4 80 1 -1 -1 -1
 11 -1 0 0 0 0 0 0 4.9932 4.9932 0 0. 9.
 -11 -1 0 0 0 0 0 0 -5 5 0 0. 9.
 15 1 1 2 0 0 -0.406915 0.100728 -4.65448 4.99977 1.7768 0. -1
 -15 1 1 2 0 0 0.406915 -0.100728 4.64769 4.99344 1.7768 0. 1
</event>
<event>
 4 80 1 -1 -1 -1
 11 -1 0 0 0 0 0 0 4.99998 4.99998 0 0. 9.
 -11 -1 0 0 0 0 0 0 -4.99889 4.99889 0 0. 9.
 15 1 1 2 0 0 1.88228 2.62526 -3.37609 4.99906 1.7768 0. 1
 -15 1 1 2 0 0 -1.88228 -2.62526 3.37719 4.9998 1.7768 0. -1
</event>
<event>
 4 80 1 -1 -1 -1
 11 -1 0 0 0 0 0 0 5 5 0 0. 9.
 -11 -1 0 0 0 0 0 0 -4.99944 4.99944 0 0. 9.
 15 1 1 2 0 0 -1.94792 3.83042 -1.83629 4.99962 1.7768 0. -1
 -15 1 1 2 0 0 1.94792 -3.83042 1.83685 4.99982 1.7768 0. 1
</event>
<event>
 4 80 1 -1 -1 -1
 11 -1 0 0 0 0 0 0 4.99033 4.99033 0 0. 9.
 -11 -1 0 0 0 0 0 0 -4.72261 4.72261 0 0. 9.
 15 1 1 2 0 0 -2.86435 -2.08066 -2.67362 4.77908 1.7768 0. 1
 -15 1 1 2 0 0 2.86435 2.08066 2.94135 4.93385 1.7768 0. -1
</event>
<event>
 4 80 1 -1 -1 -1
 11 -1 0 0 0 0 0 0 5 5 0 0. 9.
 -11 -1 0 0 0 0 0 0 -5 5 0 0. 9.
 15 1 1 2 0 0 3.47508 -1.14274 -2.90865 5 1.7768 0. 1
 -15 1 1 2 0 0 -3.47508 1.14274 2.90865 5 1.7768 0. -1
</event>
<event>
 4 80 1 -1 -1 -1
 11 -1 0 0 0 0 0 0 4.99803 4.99803 0 0. 9.
 -11 -1 0 0 0 0 0 0 -5 5 0 0. 9.
 15 1 1 2 0 0 -3.8097 2.33241 1.36959 4.99875 1.7768 0. -1
 -15 1 1 2 0 0 3.8097 -2.33241 -1.37156 4.99929 1.7768 0. 1
</event>
<event>
 4 80 1 -1 -1 -1
 11 -1 0 0 0 0 0 0 5 5 0 0. 9.
 -11 -1 0 0 0 0 0 0 -4.99998 4.99998 0 0. 9.
 15 1 1 2 0 0 -2.45209 -2.08975 3.38562 4.99999 1.7768 0. 1
 -15 1 1 2 0 0 2.45209 2.08975 -3.3856 4.99998 1.7768 0. -1
</event>
<event>
 4 80 1 -1 -1 -1
 11 -1 0 0 0 0 0 0 5 5 0 0. 9.
 -11 -1 0 0 0 0 0 0 -3.8269 3.8269 0 0. 9.
 15 1 1 2 0 0 2.46519 2.69281 -1.05541 4.19523 1.7768 0. -1
 -15 1 1 2 0 0 -2.46519 -2.69281 2.2285 4.63167 1.7768 0. 1
</event>
<event>
 4 80 1 -1 -1 -1
 11 -1 0 0 0 0 0 0 5 5 0 0. 9.
 -11 -1 0 0 0 0 0 0 -5 5 0 0. 9.
 15 1 1 2 0 0 -3.91743 0.529277 2.49316 5 1.7768 0. -1
 -15 1 1 2 0 0 3.91743 -0.529277 -2.49316 5 1.7768 0. 1
</event>
<event>
 4 80 1 -1 -1 -1
 11 -1 0 0 0 0 0 0 5 5 0 0. 9.
 -11 -1 0 0 0 0 0 0 -5 5 0 0. 9.
 15 1 1 2 0 0 2.15261 -3.74372 -1.78692 5 1.7768 0. -1
 -15 1 1 2 0 0 -2.15261 3.74372 1.78692 5 1.7768 0. 1
</event>
<event>
 4 80 1 -1 -1 -1
 11 -1 0 0 0 0 0 0 5 5 0 0. 9.
 -11 -1 0 0 0 0 0 0 -5 5 0 0. 9.
 15 1 1 2 0 0 -0.938754 4.18082 1.86595 5 1.7768 0. 1
 -15 1 1 2 0 0 0.938754 -4.18082 -1.86595 5 1.7768 0. -1
</event>
<event>
 4 80 1 -1 -1 -1
 11 -1 0 0 0 0 0 0 4.94511 4.94511 0 0. 9.
 -11 -1 0 0 0 0 0 0 -4.99942 4.99942 0 0. 9.
 15 1 1 2 0 0 -0.163067 4.56131 0.828907 4.96759 1.7768 0. 1
 -15 1 1 2 0 0 0.163067 -4.56131 -0.883221 4.97694 1.7768 0. -1
</event>
<event>
 4 80 1 -1 -1 -1
 11 -1 0 0 0 0 0 0 5 5 0 0. 9.
 -11 -1 0 0 0 0 0 0 -3.67042 3.67042 0 0. 9.
 15 1 1 2 0 0 -2.5143 -2.60968 -0.788452 4.11236 1.7768 0. -1
 -15 1 1 2 0 0 2.5143 2.60968 2.11803 4.55806 1.7768 0. 1
</event>
<event>
 4 80 1 -1 -1 -1
 11 -1 0 0 0 0 0 0 5 5 0 0. 9.
 -11 -1 0 0 0 0 0 0 -5 5 0 0. 9.
 15 1 1 2 0 0 -3.13048 1.21144 3.25189 5 1.7768 0. -1
 -15 1 1 2 0 0 3.13048 -1.21144 -3.25189 5 1.7768 0. 1
</event>
<event>
 4 80 1 -1 -1 -1
 11 -1 0 0 0 0 0 0 5 5 0 0. 9.
 -11 -1 0 0 0 0 0 0 -1.34812 1.34812 0 0. 9.
 15 1 1 2 0 0 0.913251 -1.0331 3.41128 4.08606 1.7768 0. -1
 -15 1 1 2 0 0 -0.913251 1.0331 0.240595 2.26206 1.7768 0. 1
</event>
<event>
 4 80 1 -1 -1 -1
 11 -1 0 0 0 0 0 0 4.76667 4.76667 0 0. 9.
 -11 -1 0 0 0 0 0 0 -5 5 0 0. 9.
 15 1 1 2 0 0 0.390404 0.247213 4.40813 4.77523 1.7768 0. 1
 -15 1 1 2 0 0 -0.390404 -0.247213 -4.64146 4.99143 1.7768 0. -1
</event>
<event>
 4 80 1 -1 -1 -1
 11 -1 0 0 0 0 0 0 5 5 0 0. 9.
 -11 -1 0 0 0 0 0 0 -5 5 0 0. 9.
 15 1 1 2 0 0 -3.47672 0.223796 -3.11522 5 1.7768 0. 1
 -15 1 1 2 0 0 3.47672 -0.223796 3.11522 5 1.7768 0. -1
</event>
<event>
 4 80 1 -1 -1 -1
 11 -1 0 0 0 0 0 0 3.86564 3.86564 0 0. 9.
 -11 -1 0 0 0 0 0 0 -5 5 0 0. 9.
 15 1 1 2 0 0 1.66163 -1.07649 2.96192 3.98127 1.7768 0. -1
 -15 1 1 2 0 0 -1.66163 1.07649 -4.09628 4.88437 1.7768 0. 1
</event>
<event>
 4 80 1 -1 -1 -1
 11 -1 0 0 0 0 0 0 4.9947 4.9947 0 0. 9.
 -11 -1 0 0 0 0 0 0 -4.98226 4.98226 0 0. 9.
 15 1 1 2 0 0 2.50758 -2.37338 -3.12528 4.98457 1.7768 0. -1
 -15 1 1 2 0 0 -2.50758 2.37338 3.13772 4.99238 1.7768 0. 1
</event>
<event>
 4 80 1 -1 -1 -1
 11 -1 0 0 0 0 0 0 5 5 0 0. 9.
 -11 -1 0 0 0 0 0 0 -4.32674 4.32674 0 0. 9.
 15 1 1 2 0 0 2.42842 -1.32129 3.63658 4.90158 1.7768 0. 1
 -15 1 1 2 0 0 -2.42842 1.32129 -2.96332 4.42516 1.7768 0. -1
</event>
<event>
 4 80 1 -1 -1 -1
 11 -1 0 0 0 0 0 0 5 5 0 0. 9.
 -11 -1 0 0 0 0 0 0 -5 5 0 0. 9.
 15 1 1 2 0 0 -1.52538 -2.21169 -3.82412 5 1.7768 0. -1
 -15 1 1 2 0 0 1.52538 2.21169 3.82412 5 1.7768 0. 1
</event>
<event>
 4 80 1 -1 -1 -1
 11 -1 0 0 0 0 0 0 4.92752 4.92752 0 0. 9.
 -11 -1 0 0 0 0 0 0 -5 5 0 0. 9.
 15 1 1 2 0 0 3.75906 -2.49501 1.02411 4.95602 1.7768 0. -1
 -15 1 1 2 0 0 -3.75906 2.49501 -1.09659 4.9715 1.7768 0. 1
</event>
<event>
 4 80 1 -1 -1 -1
 11 -1 0 0 0 0 0 0 4.99964 4.99964 0 0. 9.
 -11 -1 0 0 0 0 0 0 -5 5 0 0. 9.
 15 1 1 2 0 0 3.82477 -1.28772 2.35638 4.99974 1.7768 0. -1
 -15 1 1 2 0 0 -3.82477 1.28772 -2.35674 4.9999 1.7768 0. 1
</event>
<event>
 4 80 1 -1 -1 -1
 11 -1 0 0 0 0 0 0 4.99693 4.99693 0 0. 9.
 -11 -1 0 0 0 0 0 0 -5 5 0 0. 9.
 15 1 1 2 0 0 -3.60617 -0.513849 -2.92702 4.99936 1.7768 0. 1
 -15 1 1 2 0 0 3.60617 0.513849 2.92394 4.99756 1.7768 0. -1
</event>
<event>
 4 80 1 -1 -1 -1
 11 -1 0 0 0 0 0 0 5 5 0 0. 9.
 -11 -1 0 0 0 0 0 0 -4.80722 4.80722 0 0. 9.
 15 1 1 2 0 0 -3.71673 -2.55617 0.824734 4.91793 1.7768 0. 1
 -15 1 1 2 0 0 3.71673 2.55617 -0.631952 4.88929 1.7768 0. -1
</event>
<event>
 4 80 1 -1 -1 -1
 11 -1 0 0 0 0 0 0 5 5 0 0. 9.
 -11 -1 0 0 0 0 0 0 -5 5 0 0. 9.
 15 1 1 2 0 0 1.02797 2.98138 -3.44919 5 1.7768 0. 1
 -15 1 1 2 0 0 -1.02797 -2.98138 3.44919 5 1.7768 0. -1
</event>
<event>
 4 80 1 -1 -1 -1
 11 -1 0 0 0 0 0 0 4.13763 4.13763 0 0. 9.
 -11 -1 0 0 0 0 0 0 -5 5 0 0. 9.
 15 1 1 2 0 0 1.07676 -2.20788 2.97463 4.24739 1.7768 0. -1
 -15 1 1 2 0 0 -1.07676 2.20788 -3.83701 4.89024 1.7768 0. 1
</event>
<event>
 4 80 1 -1 -1 -1
 11 -1 0 0 0 0 0 0 5 5 0 0. 9.
 -11 -1 0 0 0 0 0 0 -4.99993 4.99993 0 0. 9.
 15 1 1 2 0 0 3.11772 1.1554 -3.28429 4.99994 1.7768 0. 1
 -15 1 1 2 0 0 -3.11772 -1.1554 3.28436 4.99999 1.7768 0. -1
</event>
<event>
 4 80 1 -1 -1 -1
 11 -1 0 0 0 0 0 0 5 5 0 0. 9.
 -11 -1 0 0 0 0 0 0 -4.99999 4.99999 0 0. 9.
 15 1 1 2 0 0 2.47205 -1.14209 3.79827 5 1.7768 0. 1
 -15 1 1 2 0 0 -2.47205 1.14209 -3.79826 4.99999 1.7768 0. -1
</event>
<event>
 4 80 1 -1 -1 -1
 11 -1 0 0 0 0 0 0 4.99766 4.99766 0 0. 9.
 -11 -1 0 0 0 0 0 0 -4.99865 4.99865 0 0. 9.
 15 1 1 2 0 0 -3.36767 -2.06189 -2.49674 4.9984 1.7768 0. 1
 -15 1 1 2 0 0 3.36767 2.06189 2.49575 4.99791 1.7768 0. -1
</event>
<event>
 4 80 1 -1 -1 -1
 11 -1 0 0 0 0 0 0 4.99981 4.99981 0 0. 9.
 -11 -1 0 0 0 0 0 0 -5 5 0 0. 9.
 15 1 1 2 0 0 2.28587 -2.3775 3.31104 4.99984 1.7768 0. 1
 -15 1 1 2 0 0 -2.28587 2.3775 -3.31123 4.99997 1.7768 0. -1
</event>
<event>
 4 80 1 -1 -1 -1
 11 -1 0 0 0 0 0 0 5 5 0 0. 9.
 -11 -1 0 0 0 0 0 0 -5 5 0 0. 9.
 15 1 1 2 0 0 4.22378 1.63667 1.15033 5 1.7768 0. 1
 -15 1 1 2 0 0 -4.22378 -1.63667 -1.15033 5 1.7768 0. -1
</event>
<event>
 4 80 1 -1 -1 -1
 11 -1 0 0 0 0 0 0 4.6025 4.6025 0 0. 9.
 -11 -1 0 0 0 0 0 0 -5 5 0 0. 9.
 15 1 1 2 0 0 2.24085 2.26868 2.91623 4.67231 1.7768 0. 1
 -15 1 1 2 0 0 -2.24085 -2.26868 -3.31373 4.9302 1.7768 0. -1
</event>
<event>
 4 80 1 -1 -1 -1
 11 -1 0 0 0 0 0 0 5 5 0 0. 9.
 -11 -1 0 0 0 0 0 0 -5 5 0 0. 9.
 15 1 1 2 0 0 -2.55357 1.00562 3.7829 5 1.7768 0. 1
 -15 1 1 2 0 0 2.55357 -1.00562 -3.7829 5 1.7768 0. -1
</event>
<event>
 4 80 1 -1 -1 -1
 11 -1 0 0 0 0 0 0 5 5 0 0. 9.
 -11 -1 0 0 0 0 0 0 -5 5 0 0. 9.
 15 1 1 2 0 0 0.195998 3.84616 -2.64781 5 1.7768 0. -1
 -15 1 1 2 0 0 -0.195998 -3.84616 2.64782 5 1.7768 0. 1
</event>
<event>
 4 80 1 -1 -1 -1
 11 -1 0 0 0 0 0 0 4.99982 4.99982 0 0. 9.
 -11 -1 0 0 0 0 0 0 -4.98284 4.98284 0 0. 9.
 15 1 1 2 0 0 3.71994 -2.81334 0.0608132 4.99142 1.7768 0. 1
 -15 1 1 2 0 0 -3.71994 2.81334 -0.0438238 4.99124 1.7768 0. -1
</event>
<event>
 4 80 1 -1 -1 -1
 11 -1 0 0 0 0 0 0 5 5 0 0. 9.
 -11 -1 0 0 0 0 0 0 -4.99959 4.99959 0 0. 9.
 15 1 1 2 0 0 0.297198 -2.96704 -3.5982 4.99964 1.7768 0. 1
 -15 1 1 2 0 0 -0.297198 2.96704 3.59862 4.99994 1.7768 0. -1
</event>
<event>
 4 80 1 -1 -1 -1
 11 -1 0 0 0 0 0 0 4.99999 4.99999 0 0. 9.
 -11 -1 0 0 0 0 0 0 -4.99698 4.99698 0 0. 9.
 15 1 1 2 0 0 -2.51005 3.64863 -1.48655 4.99804 1.7768 0. 1
 -15 1 1 2 0 0 2.51005 -3.64863 1.48956 4.99894 1.7768 0. -1
</event>
<event>
 4 80 1 -1 -1 -1
 11 -1 0 0 0 0 0 0 4.41823 4.41823 0 0. 9.
 -11 -1 0 0 0 0 0 0 -5 5 0 0. 9.
 15 1 1 2 0 0 3.25574 1.65012 -2.66411 4.85571 1.7768 0. -1
 -15 1 1 2 0 0 -3.25574 -1.65012 2.08234 4.56252 1.7768 0. 1
</event>
<event>
 4 80 1 -1 -1 -1
 11 -1 0 0 0 0 0 0 4.9995 4.9995 0 0. 9.
 -11 -1 0 0 0 0 0 0 -5 5 0 0. 9.
 15 1 1 2 0 0 -1.43238 4.27706 1.22239 4.99969 1.7768 0. 1
 -15 1 1 2 0 0 1.43238 -4.27706 -1.22288 4.99981 1.7768 0. -1
</event>
<event>
 4 80 1 -1 -1 -1
 11 -1 0 0 0 0 0 0 5 5 0 0. 9.
 -11 -1 0 0 0 0 0 0 -4.95775 4.95775 0 0. 9.
 15 1 1 2 0 0 -2.91148 3.40115 -1.23846 4.97353 1.7768 0. 1
 -15 1 1 2 0 0 2.91148 -3.40115 1.28071 4.98422 1.7768 0. -1
</event>
<event>
 4 80 1 -1 -1 -1
 11 -1 0 0 0 0 0 0 4.5471 4.5471 0 0. 9.
 -11 -1 0 0 0 0 0 0 -5 5 0 0. 9.
 15 1 1 2 0 0 2.38339 0.159644 -3.95512 4.95043 1.7768 0. -1
 -15 1 1 2 0 0 -2.38339 -0.159644 3.50222 4.59667 1.7768 0. 1
</event>
<event>
 4 80 1 -1 -1 -1
 11 -1 0 0 0 0 0 0 5 5 0 0. 9.
 -11 -1 0 0 0 0 0 0 -5 5 0 0. 9.
 15 1 1 2 0 0 -1.16182 0.957291 -4.42448 5 1.7768 0. -1
 -15 1 1 2 0 0 1.16182 -0.957291 4.42448 5 1.7768 0. 1
</event>
<event>
 4 80 1 -1 -1 -1
 11 -1 0 0 0 0 0 0 5 5 0 0. 9.
 -11 -1 0 0 0 0 0 0 -5 5 0 0. 9.
 15 1 1 2 0 0 3.25505 1.40294 -3.04609 5 1.7768 0. -1
 -15 1 1 2 0 0 -3.25505 -1.40294 3.04609 5 1.7768 0. 1
</event>
<event>
 4 80 1 -1 -1 -1
 11 -1 0 0 0 0 0 0 5 5 0 0. 9.
 -11 -1 0 0 0 0 0 0 -5 5 0 0. 9.
 15 1 1 2 0 0 1.71927 4.11178 -1.40699 5 1.7768 0. 1
 -15 1 1 2 0 0 -1.71927 -4.11178 1.40699 5 1.7768 0. -1
</event>
<event>
 4 80 1 -1 -1 -1
 11 -1 0 0 0 0 0 0 5 5 0 0. 9.
 -11 -1 0 0 0 0 0 0 -4.99999 4.99999 0 0. 9.
 15 1 1 2 0 0 -4.53729 -1.08284 -0.287621 5 1.7768 0. 1
 -15 1 1 2 0 0 4.53729 1.08284 0.287626 5 1.7768 0. -1
</event>
<event>
 4 80 1 -1 -1 -1
 11 -1 0 0 0 0 0 0 5 5 0 0. 9.
 -11 -1 0 0 0 0 0 0 -1.60248 1.60248 0 0. 9.
 15 1 1 2 0 0 0.447397 -0.167859 4.20726 4.59207 1.7768 0. -1
 -15 1 1 2 0 0 -0.447397 0.167859 -0.809745 2.01041 1.7768 0. 1
</event>
<event>
 4 80 1 -1 -1 -1
 11 -1 0 0 0 0 0 0 5 5 0 0. 9.
 -11 -1 0 0 0 0 0 0 -5 5 0 0. 9.
 15 1 1 2 0 0 -0.812672 -4.43892 1.21566 5 1.7768 0. 1
 -15 1 1 2 0 0 0.812672 4.43892 -1.21566 5 1.7768 0. -1
</event>
<event>
 4 80 1 -1 -1 -1
 11 -1 0 0 0 0 0 0 1.56548 1.56548 0 0. 9.
 -11 -1 0 0 0 0 0 0 -4.99883 4.99883 0 0. 9.
 15 1 1 2 0 0 0.789231 1.8004 -0.664961 2.73208 1.7768 0. -1
 -15 1 1 2 0 0 -0.789231 -1.8004 -2.76839 3.83224 1.7768 0. 1
</event>
<event>
 4 80 1 -1 -1 -1
 11 -1 0 0 0 0 0 0 4.11268 4.11268 0 0. 9.
 -11 -1 0 0 0 0 0 0 -5 5 0 0. 9.
 15 1 1 2 0 0 -0.619201 1.91084 3.23043 4.19859 1.7768 0. 1
 -15 1 1 2 0 0 0.619201 -1.91084 -4.11775 4.91409 1.7768 0. -1
</event>
<event>
 4 80 1 -1 -1 -1
 11 -1 0 0 0 0 0 0 4.94239 4.94239 0 0. 9.
 -11 -1 0 0 0 0 0 0 -5 5 0 0. 9.
 15 1 1 2 0 0 -1.36611 1.72855 4.05784 4.94752 1.7768 0. 1
 -15 1 1 2 0 0 1.36611 -1.72855 -4.11545 4.99487 1.7768 0. -1
</event>
<event>
 4 80 1 -1 -1 -1
 11 -1 0 0 0 0 0 0 4.99999 4.99999 0 0. 9.
 -11 -1 0 0 0 0 0 0 -4.99974 4.99974 0 0. 9.
 15 1 1 2 0 0 -3.31178 1.87402 2.71326 4.99994 1.7768 0. -1
 -15 1 1 2 0 0 3.31178 -1.87402 -2.71301 4.9998 1.7768 0. 1
</event>
<event>
 4 80 1 -1 -1 -1
 11 -1 0 0 0 0 0 0 5 5 0 0. 9.
 -11 -1 0 0 0 0 0 0 -1.66875 1.66875 0 0. 9.
 15 1 1 2 0 0 0.165511 0.44801 4.23592 4.61832 1.7768 0. 1
 -15 1 1 2 0 0 -0.165511 -0.44801 -0.904666 2.05043 1.7768 0. -1
</event>
<event>
 4 80 1 -1 -1 -1
 11 -1 0 0 0 0 0 0 5 5 0 0. 9.
 -11 -1 0 0 0 0 0 0 -5 5 0 0. 9.
 15 1 1 2 0 0 1.82123 4.02143 -1.53411 5 1.7768 0. 1
 -15 1 1 2 0 0 -1.82123 -4.02143 1.53411 5 1.7768 0. -1
</event>
<event>
 4 80 1 -1 -1 -1
 11 -1 0 0 0 0 0 0 5 5 0 0. 9.
 -11 -1 0 0 0 0 0 0 -4.99752 4.99752 0 0. 9.
 15 1 1 2 0 0 -3.32449 2.96166 1.41763 4.99911 1.7768 0. 1
 -15 1 1 2 0 0 3.32449 -2.96166 -1.41515 4.99841 1.7768 0. -1
</event>
<event>
 4 80 1 -1 -1 -1
 11 -1 0 0 0 0 0 0 5 5 0 0. 9.
 -11 -1 0 0 0 0 0 0 -4.98451 4.98451 0 0. 9.
 15 1 1 2 0 0 -1.93083 1.32211 -4.02819 4.98599 1.7768 0. -1
 -15 1 1 2 0 0 1.93083 -1.32211 4.04368 4.99852 1.7768 0. 1
</event>
<event>
 4 80 1 -1 -1 -1
 11 -1 0 0 0 0 0 0 5 5 0 0. 9.
 -11 -1 0 0 0 0 0 0 -5 5 0 0. 9.
 15 1 1 2 0 0 -2.15901 3.91145 -1.37167 5 1.7768 0. 1
 -15 1 1 2 0 0 2.15901 -3.91145 1.37167 5 1.7768 0. -1
</event>
<event>
 4 80 1 -1 -1 -1
 11 -1 0 0 0 0 0 0 4.91293 4.91293 0 0. 9.
 -11 -1 0 0 0 0 0 0 -4.52468 4.52468 0 0. 9.
 15 1 1 2 0 0 -0.742663 4.0316 -1.31258 4.65682 1.7768 0. 1
 -15 1 1 2 0 0 0.742663 -4.0316 1.70083 4.78079 1.7768 0. -1
</event>
<event>
 4 80 1 -1 -1 -1
 11 -1 0 0 0 0 0 0 5 5 0 0. 9.
 -11 -1 0 0 0 0 0 0 -4.99987 4.99987 0 0. 9.
 15 1 1 2 0 0 4.12779 -2.13052 0.513723 4.99994 1.7768 0. 1
 -15 1 1 2 0 0 -4.12779 2.13052 -0.513595 4.99993 1.7768 0. -1
</event>
<event>
 4 80 1 -1 -1 -1
 11 -1 0 0 0 0 0 0 4.68093 4.68093 0 0. 9.
 -11 -1 0 0 0 0 0 0 -3.34211 3.34211 0 0. 9.
 15 1 1 2 0 0 2.97508 0.855895 -1.05858 3.72317 1.7768 0. -1
 -15 1 1 2 0 0 -2.97508 -0.855895 2.3974 4.29987 1.7768 0. 1
</event>
<event>
 4 80 1 -1 -1 -1
 11 -1 0 0 0 0 0 0 5 5 0 0. 9.
 -11 -1 0 0 0 0 0 0 -4.99988 4.99988 0 0. 9.
 15 1 1 2 0 0 0.383974 1.37647 4.44973 4.99999 1.7768 0. 1
 -15 1 1 2 0 0 -0.383974 -1.37647 -4.44961 4.99989 1.7768 0. -1
</event>
<event>
 4 80 1 -1 -1 -1
 11 -1 0 0 0 0 0 0 4.99942 4.99942 0 0. 9.
 -11 -1 0 0 0 0 0 0 -5 5 0 0. 9.
 15 1 1 2 0 0 -2.33672 0.695947 -3.98712 4.99994 1.7768 0. 1
 -15 1 1 2 0 0 2.33672 -0.695947 3.98653 4.99948 1.7768 0. -1
</event>
<event>
 4 80 1 -1 -1 -1
 11 -1 0 0 0 0 0 0 1.89161 1.89161 0 0. 9.
 -11 -1 0 0 0 0 0 0 -5 5 0 0. 9.
 15 1 1 2 0 0 -0.19606 0.0587278 1.2488 2.18154 1.7768 0. 1
 -15 1 1 2 0 0 0.19606 -0.0587278 -4.35719 4.71007 1.7768 0. -1
</event>
<event>
 4 80 1 -1 -1 -1
 11 -1 0 0 0 0 0 0 5 5 0 0. 9.
 -11 -1 0 0 0 0 0 0 -5 5 0 0. 9.
 15 1 1 2 0 0 -1.54356 1.13812 -4.26197 5 1.7768 0. 1
 -15 1 1 2 0 0 1.54356 -1.13812 4.26197 5 1.7768 0. -1
</event>
<event>
 4 80 1 -1 -1 -1
 11 -1 0 0 0 0 0 0 5 5 0 0. 9.
 -11 -1 0 0 0 0 0 0 -4.98646 4.98646 0 0. 9.
 15 1 1 2 0 0 -0.535234 2.02041 4.17883 4.99889 1.7768 0. -1
 -15 1 1 2 0 0 0.535234 -2.02041 -4.16529 4.98758 1.7768 0. 1
</event>
<event>
 4 80 1 -1 -1 -1
 11 -1 0 0 0 0 0 0 5 5 0 0. 9.
 -11 -1 0 0 0 0 0 0 -4.99207 4.99207 0 0. 9.
 15 1 1 2 0 0 4.56756 0.93898 -0.237511 4.99584 1.7768 0. 1
 -15 1 1 2 0 0 -4.56756 -0.93898 0.245439 4.99623 1.7768 0. -1
</event>
<event>
 4 80 1 -1 -1 -1
 11 -1 0 0 0 0 0 0 5 5 0 0. 9.
 -11 -1 0 0 0 0 0 0 -4.91973 4.91973 0 0. 9.
 15 1 1 2 0 0 -3.59704 0.435139 2.92343 4.9832 1.7768 0. -1
 -15 1 1 2 0 0 3.59704 -0.435139 -2.84316 4.93653 1.7768 0. 1
</event>
<event>
 4 80 1 -1 -1 -1
 11 -1 0 0 0 0 0 0 5 5 0 0. 9.
 -11 -1 0 0 0 0 0 0 -5 5 0 0. 9.
 15 1 1 2 0 0 4.66859 -0.139111 -0.164736 5 1.7768 0. 1
 -15 1 1 2 0 0 -4.66859 0.139111 0.164738 5 1.7768 0. -1
</event>
<event>
 4 80 1 -1 -1 -1
 11 -1 0 0 0 0 0 0 4.99999 4.99999 0 0. 9.
 -11 -1 0 0 0 0 0 0 -5 5 0 0. 9.
 15 1 1 2 0 0 -0.278497 -3.58163 -2.98942 5 1.7768 0. 1
 -15 1 1 2 0 0 0.278497 3.58163 2.98941 4.99999 1.7768 0. -1
</event>
<event>
 4 80 1 -1 -1 -1
 11 -1 0 0 0 0 0 0 4.99757 4.99757 0 0. 9.
 -11 -1 0 0 0 0 0 0 -4.69361 4.69361 0 0. 9.
 15 1 1 2 0 0 3.21497 -1.75952 2.77375 4.92782 1.7768 0. 1
 -15 1 1 2 0 0 -3.21497 1.75952 -2.46979 4.76336 1.7768 0. -1
</event>
<event>
 4 80 1 -1 -1 -1
 11 -1 0 0 0 0 0 0 5 5 0 0. 9.
 -11 -1 0 0 0 0 0 0 -1.34528 1.34528 0 0. 9.
 15 1 1 2 0 0 -0.862891 -0.787718 3.64327 4.21855 1.7768 0. -1
 -15 1 1 2 0 0 0.862891 0.787718 0.0114584 2.12672 1.7768 0. 1
</event>
<event>
 4 80 1 -1 -1 -1
 11 -1 0 0 0 0 0 0 4.99212 4.99212 0 0. 9.
 -11 -1 0 0 0 0 0 0 -5 5 0 0. 9.
 15 1 1 2 0 0 -0.878208 1.12459 -4.44994 4.99956 1.7768 0. -1
 -15 1 1 2 0 0 0.878208 -1.12459 4.44206 4.99255 1.7768 0. 1
</event>
<event>
 4 80 1 -1 -1 -1
 11 -1 0 0 0 0 0 0 4.99949 4.99949 0 0. 9.
 -11 -1 0 0 0 0 0 0 -4.99999 4.99999 0 0. 9.
 15 1 1 2 0 0 1.24013 -2.38699 3.82128 4.99955 1.7768 0. 1
 -15 1 1 2 0 0 -1.24013 2.38699 -3.82177 4.99993 1.7768 0. -1
</event>
<event>
 4 80 1 -1 -1 -1
 11 -1 0 0 0 0 0 0 5 5 0 0. 9.
 -11 -1 0 0 0 0 0 0 -4.99925 4.99925 0 0. 9.
 15 1 1 2 0 0 -0.969827 4.2383 -1.71274 4.99949 1.7768 0. 1
 -15 1 1 2 0 0 0.969827 -4.2383 1.71349 4.99975 1.7768 0. -1
</event>
<event>
 4 80 1 -1 -1 -1
 11 -1 0 0 0 0 0 0 3.98764 3.98764 0 0. 9.
 -11 -1 0 0 0 0 0 0 -5 5 0 0. 9.
 15 1 1 2 0 0 -3.37911 -0.996359 -2.60987 4.73078 1.7768 0. 1
 -15 1 1 2 0 0 3.37911 0.996359 1.59751 4.25686 1.7768 0. -1
</event>
<event>
 4 80 1 -1 -1 -1
 11 -1 0 0 0 0 0 0 5 5 0 0. 9.
 -11 -1 0 0 0 0 0 0 -5 5 0 0. 9.
 15 1 1 2 0 0 -2.13124 -3.15736 2.70762 5 1.7768 0. 1
 -15 1 1 2 0 0 2.13124 3.15736 -2.70762 5 1.7768 0. -1
</event>
<event>
 4 80 1 -1 -1 -1
 11 -1 0 0 0 0 0 0 5 5 0 0. 9.
 -11 -1 0 0 0 0 0 0 -5 5 0 0. 9.
 15 1 1 2 0 0 1.5188 -4.04913 1.77202 5 1.7768 0. -1
 -15 1 1 2 0 0 -1.5188 4.04913 -1.77202 5 1.7768 0. 1
</event>
<event>
 4 80 1 -1 -1 -1
 11 -1 0 0 0 0 0 0 4.99951 4.99951 0 0. 9.
 -11 -1 0 0 0 0 0 0 -5 5 0 0. 9.
 15 1 1 2 0 0 -1.8031 1.16988 4.14946 4.99955 1.7768 0. 1
 -15 1 1 2 0 0 1.8031 -1.16988 -4.14995 4.99996 1.7768 0. -1
</event>
<event>
 4 80 1 -1 -1 -1
 11 -1 0 0 0 0 0 0 4.99999 4.99999 0 0. 9.
 -11 -1 0 0 0 0 0 0 -3.9198 3.9198 0 0. 9.
 15 1 1 2 0 0 -3.59542 0.990887 2.14323 4.65404 1.7768 0. -1
 -15 1 1 2 0 0 3.59542 -0.990887 -1.06304 4.26576 1.7768 0. 1
</event>
<event>
 4 80 1 -1 -1 -1
 11 -1 0 0 0 0 0 0 4.99997 4.99997 0 0. 9.
 -11 -1 0 0 0 0 0 0 -5 5 0 0. 9.
 15 1 1 2 0 0 2.73147 2.55114 2.80585 4.99998 1.7768 0. 1
 -15 1 1 2 0 0 -2.73147 -2.55114 -2.80588 4.99999 1.7768 0. -1
</event>
<event>
 4 80 1 -1 -1 -1
 11 -1 0 0 0 0 0 0 4.82733 4.82733 0 0. 9.
 -11 -1 0 0 0 0 0 0 -4.9858 4.9858 0 0. 9.
 15 1 1 2 0 0 0.668113 -0.689426 -4.55069 4.97877 1.7768 0. -1
 -15 1 1 2 0 0 -0.668113 0.689426 4.39222 4.83436 1.7768 0. 1
</event>
<event>
 4 80 1 -1 -1 -1
 11 -1 0 0 0 0 0 0 5 5 0 0. 9.
 -11 -1 0 0 0 0 0 0 -4.99994 4.99994 0 0. 9.
 15 1 1 2 0 0 -1.64127 3.78427 2.19718 4.99998 1.7768 0. 1
 -15 1 1 2 0 0 1.64127 -3.78427 -2.19712 4.99996 1.7768 0. -1
</event>
<event>
 4 80 1 -1 -1 -1
 11 -1 0 0 0 0 0 0 5 5 0 0. 9.
 -11 -1 0 0 0 0 0 0 -5 5 0 0. 9.
 15 1 1 2 0 0 -1.05725 -3.81391 2.48568 5 1.7768 0. 1
 -15 1 1 2 0 0 1.05725 3.81391 -2.48568 5 1.7768 0. -1
</event>
<event>
 4 80 1 -1 -1 -1
 11 -1 0 0 0 0 0 0 5 5 0 0. 9.
 -11 -1 0 0 0 0 0 0 -3.97989 3.97989 0 0. 9.
 15 1 1 2 0 0 -3.57686 1.97631 0.30385 4.46652 1.7768 0. -1
 -15 1 1 2 0 0 3.57686 -1.97631 0.716263 4.51337 1.7768 0. 1
</event>
<event>
 4 80 1 -1 -1 -1
 11 -1 0 0 0 0 0 0 0.92887 0.92887 0 0. 9.
 -11 -1 0 0 0 0 0 0 -5 5 0 0. 9.
 15 1 1 2 0 0 -0.723786 -0.39551 -3.27076 3.8126 1.7768 0. -1
 -15 1 1 2 0 0 0.723786 0.39551 -0.80037 2.11627 1.7768 0. 1
</event>
<event>
 4 80 1 -1 -1 -1
 11 -1 0 0 0 0 0 0 4.99999 4.99999 0 0. 9.
 -11 -1 0 0 0 0 0 0 -5 5 0 0. 9.
 15 1 1 2 0 0 -1.51121 -0.0122463 4.42247 4.99999 1.7768 0. 1
 -15 1 1 2 0 0 1.51121 0.0122463 -4.42248 5 1.7768 0. -1
</event>
<event>
 4 80 1 -1 -1 -1
 11 -1 0 0 0 0 0 0 4.81717 4.81717 0 0. 9.
 -11 -1 0 0 0 0 0 0 -5 5 0 0. 9.
 15 1 1 2 0 0 0.162908 -1.31427 -4.47102 4.99015 1.7768 0. -1
 -15 1 1 2 0 0 -0.162908 1.31427 4.28819 4.82703 1.7768 0. 1
</event>
<event>
 4 80 1 -1 -1 -1
 11 -1 0 0 0 0 0 0 4.3533 4.3533 0 0. 9.
 -11 -1 0 0 0 0 0 0 -5 5 0 0. 9.
 15 1 1 2 0 0 1.11489 3.09524 -3.12025 4.87003 1.7768 0. -1
 -15 1 1 2 0 0 -1.11489 -3.09524 2.47356 4.48327 1.7768 0. 1
</event>
<event>
 4 80 1 -1 -1 -1
 11 -1 0 0 0 0 0 0 5 5 0 0. 9.
 -11 -1 0 0 0 0 0 0 -4.99998 4.99998 0 0. 9.
 15 1 1 2 0 0 1.10831 2.38087 -3.8659 4.99999 1.7768 0. 1
 -15 1 1 2 0 0 -1.10831 -2.38087 3.86592 5 1.7768 0. -1
</event>
<event>
 4 80 1 -1 -1 -1
 11 -1 0 0 0 0 0 0 5 5 0 0. 9.
 -11 -1 0 0 0 0 0 0 -4.84686 4.84686 0 0. 9.
 15 1 1 2 0 0 0.936709 -1.23488 4.39846 4.99064 1.7768 0. -1
 -15 1 1 2 0 0 -0.936709 1.23488 -4.24532 4.85621 1.7768 0. 1
</event>
<event>
 4 80 1 -1 -1 -1
 11 -1 0 0 0 0 0 0 5 5 0 0. 9.
 -11 -1 0 0 0 0 0 0 -3.1281 3.1281 0 0. 9.
 15 1 1 2 0 0 0.162319 1.97513 -2.06978 3.37183 1.7768 0. -1
 -15 1 1 2 0 0 -0.162319 -1.97513 3.94168 4.75627 1.7768 0. 1
</event>
<event>
 4 80 1 -1 -1 -1
 11 -1 0 0 0 0 0 0 4.85425 4.85425 0 0. 9.
 -11 -1 0 0 0 0 0 0 -5 5 0 0. 9.
 15 1 1 2 0 0 -1.19071 2.92408 -3.41172 4.97651 1.7768 0. -1
 -15 1 1 2 0 0 1.19071 -2.92408 3.26598 4.87774 1.7768 0. 1
</event>
<event>
 4 80 1 -1 -1 -1
 11 -1 0 0 0 0 0 0 4.99989 4.99989 0 0. 9.
 -11 -1 0 0 0 0 0 0 -5 5 0 0. 9.
 15 1 1 2 0 0 -0.24882 -0.368655 -4.65236 5 1.7768 0. -1
 -15 1 1 2 0 0 0.24882 0.368655 4.65224 4.99989 1.7768 0. 1
</event>
<event>
 4 80 1 -1 -1 -1
 11 -1 0 0 0 0 0 0 4.99454 4.99454 0 0. 9.
 -11 -1 0 0 0 0 0 0 -5 5 0 0. 9.
 15 1 1 2 0 0 4.24034 -1.78154 0.810063 4.99683 1.7768 0. -1
 -15 1 1 2 0 0 -4.24034 1.78154 -0.815518 4.99772 1.7768 0. 1
</event>
<event>
 4 80 1 -1 -1 -1
 11 -1 0 0 0 0 0 0 5 5 0 0. 9.
 -11 -1 0 0 0 0 0 0 -4.99998 4.99998 0 0. 9.
 15 1 1 2 0 0 0.667898 -0.301933 4.61574 5 1.7768 0. 1
 -15 1 1 2 0 0 -0.667898 0.301933 -4.61572 4.99998 1.7768 0. -1
</event>
<event>
 4 80 1 -1 -1 -1
 11 -1 0 0 0 0 0 0 4.40088 4.40088 0 0. 9.
 -11 -1 0 0 0 0 0 0 -4.99963 4.99963 0 0. 9.
 15 1 1 2 0 0 1.19585 4.0278 -1.39328 4.76993 1.7768 0. -1
 -15 1 1 2 0 0 -1.19585 -4.0278 0.794531 4.63058 1.7768 0. 1
</event>
<event>
 4 80 1 -1 -1 -1
 11 -1 0 0 0 0 0 0 5 5 0 0. 9.
 -11 -1 0 0 0 0 0 0 -5 5 0 0. 9.
 15 1 1 2 0 0 -4.61492 0.650086 -0.349523 5 1.7768 0. -1
 -15 1 1 2 0 0 4.61492 -0.650086 0.349523 5 1.7768 0. 1
</event>
<event>
 4 80 1 -1 -1 -1
 11 -1 0 0 0 0 0 0 4.90949 4.90949 0 0. 9.
 -11 -1 0 0 0 0 0 0 -4.97692 4.97692 0 0. 9.
 15 1 1 2 0 0 -3.0727 -3.17023 1.30221 4.93409 1.7768 0. -1
 -15 1 1 2 0 0 3.0727 3.17023 -1.36964 4.95232 1.7768 0. 1
</event>
<event>
 4 80 1 -1 -1 -1
 11 -1 0 0 0 0 0 0 4.62091 4.62091 0 0. 9.
 -11 -1 0 0 0 0 0 0 -4.96702 4.96702 0 0. 9.
 15 1 1 2 0 0 -4.25583 0.435788 -1.39549 4.8381 1.7768 0. -1
 -15 1 1 2 0 0 4.25583 -0.435788 1.04938 4.74984 1.7768 0. 1
</event>
<event>
 4 80 1 -1 -1 -1
 11 -1 0 0 0 0 0 0 4.99442 4.99442 0 0. 9.
 -11 -1 0 0 0 0 0 0 -5 5 0 0. 9.
 15 1 1 2 0 0 2.96808 -1.22848 3.38774 4.99531 1.7768 0. -1
 -15 1 1 2 0 0 -2.96808 1.22848 -3.39332 4.9991 1.7768 0. 1
</event>
<event>
 4 80 1 -1 -1 -1
 11 -1 0 0 0 0 0 0 5 5 0 0. 9.
 -11 -1 0 0 0 0 0 0 -5 5 0 0. 9.
 15 1 1 2 0 0 2.59311 -0.114166 3.88652 5 1.7768 0. -1
 -15 1 1 2 0 0 -2.59311 0.114166 -3.88652 5 1.7768 0. 1
</event>
<event>
 4 80 1 -1 -1 -1
 11 -1 0 0 0 0 0 0 5 5 0 0. 9.
 -11 -1 0 0 0 0 0 0 -4.8979 4.8979 0 0. 9.
 15 1 1 2 0 0 -1.18813 0.593174 4.47489 4.99458 1.7768 0. -1
 -15 1 1 2 0 0 1.18813 -0.593174 -4.37279 4.90332 1.7768 0. 1
</event>
<event>
 4 80 1 -1 -1 -1
 11 -1 0 0 0 0 0 0 5 5 0 0. 9.
 -11 -1 0 0 0 0 0 0 -4.99995 4.99995 0 0. 9.
 15 1 1 2 0 0 1.72084 0.228814 -4.33914 4.99995 1.7768 0. -1
 -15 1 1 2 0 0 -1.72084 -0.228814 4.33919 5 1.7768 0. 1
</event>
<event>
 4 80 1 -1 -1 -1
 11 -1 0 0 0 0 0 0 5 5 0 0. 9.
 -11 -1 0 0 0 0 0 0 -4.9789 4.9789 0 0. 9.
 15 1 1 2 0 0 -4.13261 -1.09866 1.86831 4.99338 1.7768 0. 1
 -15 1 1 2 0 0 4.13261 1.09866 -1.8472 4.98552 1.7768 0. -1
</event>
<event>
 4 80 1 -1 -1 -1
 11 -1 0 0 0 0 0 0 4.99967 4.99967 0 0. 9.
 -11 -1 0 0 0 0 0 0 -3.95152 3.95152 0 0. 9.
 15 1 1 2 0 0 -0.499753 -2.27577 -2.84119 4.08154 1.7768 0. -1
 -15 1 1 2 0 0 0.499753 2.27577 3.88933 4.86965 1.7768 0. 1
</event>
<event>
 4 80 1 -1 -1 -1
 11 -1 0 0 0 0 0 0 5 5 0 0. 9.
 -11 -1 0 0 0 0 0 0 -5 5 0 0. 9.
 15 1 1 2 0 0 -2.45851 2.91133 -2.70595 5 1.7768 0. 1
 -15 1 1 2 0 0 2.45851 -2.91133 2.70595 5 1.7768 0. -1
</event>
<event>
 4 80 1 -1 -1 -1
 11 -1 0 0 0 0 0 0 4.99997 4.99997 0 0. 9.
 -11 -1 0 0 0 0 0 0 -4.99991 4.99991 0 0. 9.
 15 1 1 2 0 0 -0.457724 1.64051 4.35214 4.99997 1.7768 0. -1
 -15 1 1 2 0 0 0.457724 -1.64051 -4.35208 4.99992 1.7768 0. 1
</event>
<event>
 4 80 1 -1 -1 -1
 11 -1 0 0 0 0 0 0 5 5 0 0. 9.
 -11 -1 0 0 0 0 0 0 -5 5 0 0. 9.
 15 1 1 2 0 0 1.09329 -4.53364 -0.305117 5 1.7768 0. -1
 -15 1 1 2 0 0 -1.09329 4.53364 0.305117 5 1.7768 0. 1
</event>
<event>
 4 80 1 -1 -1 -1
 11 -1 0 0 0 0 0 0 4.99966 4.99966 0 0. 9.
 -11 -1 0 0 0 0 0 0 -3.36165 3.36165 0 0. 9.
 15 1 1 2 0 0 2.40035 2.74871 1.40687 4.29582 1.7768 0. -1
 -15 1 1 2 0 0 -2.40035 -2.74871 0.231143 4.06549 1.7768 0. 1
</event>
<event>
 4 80 1 -1 -1 -1
 11 -1 0 0 0 0 0 0 2.32152 2.32152 0 0. 9.
 -11 -1 0 0 0 0 0 0 -5 5 0 0. 9.
 15 1 1 2 0 0 0.813549 2.382 0.22304 3.08922 1.7768 0. 1
 -15 1 1 2 0 0 -0.813549 -2.382 -2.90152 4.2323 1.7768 0. -1
</event>
<event>
 4 80 1 -1 -1 -1
 11 -1 0 0 0 0 0 0 5 5 0 0. 9.
 -11 -1 0 0 0 0 0 0 -4.97082 4.97082 0 0. 9.
 15 1 1 2 0 0 4.13428 -2.07218 -0.542362 4.98378 1.7768 0. -1
 -15 1 1 2 0 0 -4.13428 2.07218 0.571541 4.98704 1.7768 0. 1
</event>
<event>
 4 80 1 -1 -1 -1
 11 -1 0 0 0 0 0 0 5 5 0 0. 9.
 -11 -1 0 0 0 0 0 0 -4.99988 4.99988 0 0. 9.
 15 1 1 2 0 0 -0.870882 0.105813 -4.59037 4.99989 1.7768 0. 1
 -15 1 1 2 0 0 0.870882 -0.105813 4.59049 5 1.7768 0. -1
</event>
<event>
 4 80 1 -1 -1 -1
 11 -1 0 0 0 0 0 0 5 5 0 0. 9.
 -11 -1 0 0 0 0 0 0 -5 5 0 0. 9.
 15 1 1 2 0 0 3.8741 1.14869 2.34822 5 1.7768 0. -1
 -15 1 1 2 0 0 -3.8741 -1.14869 -2.34822 5 1.7768 0. 1
</event>
<event>
 4 80 1 -1 -1 -1
 11 -1 0 0 0 0 0 0 5 5 0 0. 9.
 -11 -1 0 0 0 0 0 0 -4.99775 4.99775 0 0. 9.
 15 1 1 2 0 0 -1.83933 -4.23752 0.702053 4.99903 1.7768 0. -1
 -15 1 1 2 0 0 1.83933 4.23752 -0.699804 4.99872 1.7768 0. 1
</event>
<event>
 4 80 1 -1 -1 -1
 11 -1 0 0 0 0 0 0 4.99999 4.99999 0 0. 9.
 -11 -1 0 0 0 0 0 0 -4.44968 4.44968 0 0. 9.
 15 1 1 2 0 0 1.86091 -0.485058 -3.65482 4.49597 1.7768 0. 1
 -15 1 1 2 0 0 -1.86091 0.485058 4.20513 4.9537 1.7768 0. -1
</event>
<event>
 4 80 1 -1 -1 -1
 11 -1 0 0 0 0 0 0 4.96683 4.96683 0 0. 9.
 -11 -1 0 0 0 0 0 0 -5 5 0 0. 9.
 15 1 1 2 0 0 -2.90527 -3.57707 0.64704 4.98121 1.7768 0. -1
 -15 1 1 2 0 0 2.90527 3.57707 -0.680208 4.98562 1.7768 0. 1
</event>
<event>
 4 80 1 -1 -1 -1
 11 -1 0 0 0 0 0 0 5 5 0 0. 9.
 -11 -1 0 0 0 0 0 0 -4.99384 4.99384 0 0. 9.
 15 1 1 2 0 0 2.48822 -3.90385 0.619673 4.9973 1.7768 0. 1
 -15 1 1 2 0 0 -2.48822 3.90385 -0.613513 4.99654 1.7768 0. -1
</event>
<event>
 4 80 1 -1 -1 -1
 11 -1 0 0 0 0 0 0 5 5 0 0. 9.
 -11 -1 0 0 0 0 0 0 -5 5 0 0. 9.
 15 1 1 2 0 0 4.67296 0.072222 -0.0228786 5 1.7768 0. 1
 -15 1 1 2 0 0 -4.67296 -0.072222 0.0228787 5 1.7768 0. -1
</event>
<event>
 4 80 1 -1 -1 -1
 11 -1 0 0 0 0 0 0 5 5 0 0. 9.
 -11 -1 0 0 0 0 0 0 -4.83354 4.83354 0 0. 9.
 15 1 1 2 0 0 -3.94813 -2.05768 -1.00699 4.89832 1.7768 0. 1
 -15 1 1 2 0 0 3.94813 2.05768 1.17345 4.93523 1.7768 0. -1
</event>
<event>
 4 80 1 -1 -1 -1
 11 -1 0 0 0 0 0 0 5 5 0 0. 9.
 -11 -1 0 0 0 0 0 0 -1.10117 1.10117 0 0. 9.
 15 1 1 2 0 0 -0.891244 1.05976 1.09618 2.50535 1.7768 0. 1
 -15 1 1 2 0 0 0.891244 -1.05976 2.80265 3.59583 1.7768 0. -1
</event>
<event>
 4 80 1 -1 -1 -1
 11 -1 0 0 0 0 0 0 4.74331 4.74331 0 0. 9.
 -11 -1 0 0 0 0 0 0 -4.99941 4.99941 0 0. 9.
 15 1 1 2 0 0 1.83913 3.30274 -2.63201 4.93718 1.7768 0. -1
 -15 1 1 2 0 0 -1.83913 -3.30274 2.37591 4.80554 1.7768 0. 1
</event>
<event>
 4 80 1 -1 -1 -1
 11 -1 0 0 0 0 0 0 4.99998 4.99998 0 0. 9.
 -11 -1 0 0 0 0 0 0 -4.99999 4.99999 0 0. 9.
 15 1 1 2 0 0 0.31635 3.48249 -3.1007 4.99999 1.7768 0. 1
 -15 1 1 2 0 0 -0.31635 -3.48249 3.10069 4.99998 1.7768 0. -1
</event>
<event>
 4 80 1 -1 -1 -1
 11 -1 0 0 0 0 0 0 3.56803 3.56803 0 0. 9.
 -11 -1 0 0 0 0 0 0 -5 5 0 0. 9.
 15 1 1 2 0 0 0.135986 0.114627 -4.59822 4.93285 1.7768 0. -1
 -15 1 1 2 0 0 -0.135986 -0.114627 3.16625 3.63518 1.7768 0. 1
</event>
<event>
 4 80 1 -1 -1 -1
 11 -1 0 0 0 0 0 0 5 5 0 0. 9.
 -11 -1 0 0 0 0 0 0 -4.99998 4.99998 0 0. 9.
 15 1 1 2 0 0 2.63616 -3.73924 -0.954441 4.99999 1.7768 0. 1
 -15 1 1 2 0 0 -2.63616 3.73924 0.954456 4.99999 1.7768 0. -1
</event>
<event>
 4 80 1 -1 -1 -1
 11 -1 0 0 0 0 0 0 5 5 0 0. 9.
 -11 -1 0 0 0 0 0 0 -5 5 0 0. 9.
 15 1 1 2 0 0 -2.04056 2.34176 -3.49207 5 1.7768 0. -1
 -15 1 1 2 0 0 2.04056 -2.34176 3.49207 5 1.7768 0. 1
</event>
<event>
 4 80 1 -1 -1 -1
 11 -1 0 0 0 0 0 0 4.99992 4.99992 0 0. 9.
 -11 -1 0 0 0 0 0 0 -5 5 0 0. 9.
 15 1 1 2 0 0 2.10251 -0.672784 -4.11935 4.99999 1.7768 0. 1
 -15 1 1 2 0 0 -2.10251 0.672784 4.11927 4.99993 1.7768 0. -1
</event>
<event>
 4 80 1 -1 -1 -1
 11 -1 0 0 0 0 0 0 5 5 0 0. 9.
 -11 -1 0 0 0 0 0 0 -5 5 0 0. 9.
 15 1 1 2 0 0 -0.790151 0.190268 -4.60236 5 1.7768 0. -1
 -15 1 1 2 0 0 0.790151 -0.190268 4.60236 5 1.7768 0. 1
</event>
<event>
 4 80 1 -1 -1 -1
 11 -1 0 0 0 0 0 0 5 5 0 0. 9.
 -11 -1 0 0 0 0 0 0 -5 5 0 0. 9.
 15 1 1 2 0 0 3.26326 -3.17928 1.04191 5 1.7768 0. 1
 -15 1 1 2 0 0 -3.26326 3.17928 -1.04192 5 1.7768 0. -1
</event>
<event>
 4 80 1 -1 -1 -1
 11 -1 0 0 0 0 0 0 4.67707 4.67707 0 0. 9.
 -11 -1 0 0 0 0 0 0 -5 5 0 0. 9.
 15 1 1 2 0 0 1.6305 -3.14707 -2.93159 4.93098 1.7768 0. -1
 -15 1 1 2 0 0 -1.6305 3.14707 2.60866 4.7461 1.7768 0. 1
</event>
<event>
 4 80 1 -1 -1 -1
 11 -1 0 0 0 0 0 0 4.9999 4.9999 0 0. 9.
 -11 -1 0 0 0 0 0 0 -4.99999 4.99999 0 0. 9.
 15 1 1 2 0 0 -1.07027 1.65984 4.23566 4.9999 1.7768 0. 1
 -15 1 1 2 0 0 1.07027 -1.65984 -4.23575 4.99999 1.7768 0. -1
</event>
<event>
 4 80 1 -1 -1 -1
 11 -1 0 0 0 0 0 0 5 5 0 0. 9.
 -11 -1 0 0 0 0 0 0 -4.99999 4.99999 0 0. 9.
 15 1 1 2 0 0 -1.43633 4.15577 1.5839 5 1.7768 0. -1
 -15 1 1 2 0 0 1.43633 -4.15577 -1.5839 5 1.7768 0. 1
</event>
<event>
 4 80 1 -1 -1 -1
 11 -1 0 0 0 0 0 0 5 5 0 0. 9.
 -11 -1 0 0 0 0 0 0 -4.99999 4.99999 0 0. 9.
 15 1 1 2 0 0 3.46892 2.73926 1.51832 5 1.7768 0. -1
 -15 1 1 2 0 0 -3.46892 -2.73926 -1.51832 5 1.7768 0. 1
</event>
<event>
 4 80 1 -1 -1 -1
 11 -1 0 0 0 0 0 0 5 5 0 0. 9.
 -11 -1 0 0 0 0 0 0 -4.47119 4.47119 0 0. 9.
 15 1 1 2 0 0 1.8384 3.33068 -1.91271 4.61404 1.7768 0. -1
 -15 1 1 2 0 0 -1.8384 -3.33068 2.44152 4.85715 1.7768 0. 1
</event>
<event>
 4 80 1 -1 -1 -1
 11 -1 0 0 0 0 0 0 5 5 0 0. 9.
 -11 -1 0 0 0 0 0 0 -4.92825 4.92825 0 0. 9.
 15 1 1 2 0 0 -3.1793 2.56611 2.22468 4.97994 1.7768 0. 1
 -15 1 1 2 0 0 3.1793 -2.56611 -2.15293 4.94831 1.7768 0. -1
</event>
<event>
 4 80 1 -1 -1 -1
 11 -1 0 0 0 0 0 0 4.99971 4.99971 0 0. 9.
 -11 -1 0 0 0 0 0 0 -5 5 0 0. 9.
 15 1 1 2 0 0 -2.51373 2.00879 3.38906 4.99975 1.7768 0. 1
 -15 1 1 2 0 0 2.51373 -2.00879 -3.38935 4.99995 1.7768 0. -1
</event>
<event>
 4 80 1 -1 -1 -1
 11 -1 0 0 0 0 0 0 4.31158 4.31158 0 0. 9.
 -11 -1 0 0 0 0 0 0 -3.18834 3.18834 0 0. 9.
 15 1 1 2 0 0 -2.17617 -2.40158 0.857772 3.79431 1.7768 0. -1
 -15 1 1 2 0 0 2.17617 2.40158 0.265465 3.70561 1.7768 0. 1
</event>
<event>
 4 80 1 -1 -1 -1
 11 -1 0 0 0 0 0 0 4.99996 4.99996 0 0. 9.
 -11 -1 0 0 0 0 0 0 -4.97659 4.97659 0 0. 9.
 15 1 1 2 0 0 -2.73221 -2.42864 2.90337 4.99505 1.7768 0. -1
 -15 1 1 2 0 0 2.73221 2.42864 -2.88001 4.9815 1.7768 0. 1
</event>
<event>
 4 80 1 -1 -1 -1
 11 -1 0 0 0 0 0 0 5 5 0 0. 9.
 -11 -1 0 0 0 0 0 0 -4.99365 4.99365 0 0. 9.
 15 1 1 2 0 0 4.35749 0.199492 1.67141 4.99788 1.7768 0. 1
 -15 1 1 2 0 0 -4.35749 -0.199492 -1.66505 4.99576 1.7768 0. -1
</event>
<event>
 4 80 1 -1 -1 -1
 11 -1 0 0 0 0 0 0 4.9999 4.9999 0 0. 9.
 -11 -1 0 0 0 0 0 0 -5 5 0 0. 9.
 15 1 1 2 0 0 4.01306 1.11748 -2.11863 4.99997 1.7768 0. -1
 -15 1 1 2 0 0 -4.01306 -1.11748 2.11853 4.99993 1.7768 0. 1
</event>
<event>
 4 80 1 -1 -1 -1
 11 -1 0 0 0 0 0 0 2.05612 2.05612 0 0. 9.
 -11 -1 0 0 0 0 0 0 -5 5 0 0. 9.
 15 1 1 2 0 0 -1.82904 1.5562 -2.75313 4.06259 1.7768 0. -1
 -15 1 1 2 0 0 1.82904 -1.5562 -0.190748 2.99354 1.7768 0. 1
</event>
<event>
 4 80 1 -1 -1 -1
 11 -1 0 0 0 0 0 0 5 5 0 0. 9.
 -11 -1 0 0 0 0 0 0 -4.9995 4.9995 0 0. 9.
 15 1 1 2 0 0 3.65599 -2.895 0.304436 4.99977 1.7768 0. -1
 -15 1 1 2 0 0 -3.65599 2.895 -0.303937 4.99974 1.7768 0. 1
</event>
<event>
 4 80 1 -1 -1 -1
 11 -1 0 0 0 0 0 0 5 5 0 0. 9.
 -11 -1 0 0 0 0 0 0 -5 5 0 0. 9.
 15 1 1 2 0 0 -0.864392 -0.794642 4.52368 5 1.7768 0. 1
 -15 1 1 2 0 0 0.864392 0.794642 -4.52368 5 1.7768 0. -1
</event>
<event>
 4 80 1 -1 -1 -1
 11 -1 0 0 0 0 0 0 5 5 0 0. 9.
 -11 -1 0 0 0 0 0 0 -4.99897 4.99897 0 0. 9.
 15 1 1 2 0 0 -2.26634 -0.332123 4.07366 4.9999 1.7768 0. 1
 -15 1 1 2 0 0 2.26634 0.332123 -4.07263 4.99907 1.7768 0. -1
</event>
<event>
 4 80 1 -1 -1 -1
 11 -1 0 0 0 0 0 0 4.91793 4.91793 0 0. 9.
 -11 -1 0 0 0 0 0 0 -5 5 0 0. 9.
 15 1 1 2 0 0 3.15312 -2.97573 1.58224 4.94553 1.7768 0. -1
 -15 1 1 2 0 0 -3.15312 2.97573 -1.66431 4.9724 1.7768 0. 1
</event>
<event>
 4 80 1 -1 -1 -1
 11 -1 0 0 0 0 0 0 5 5 0 0. 9.
 -11 -1 0 0 0 0 0 0 -4.99914 4.99914 0 0. 9.
 15 1 1 2 0 0 0.0505116 -3.891 2.58801 4.99979 1.7768 0. 1
 -15 1 1 2 0 0 -0.0505116 3.891 -2.58715 4.99935 1.7768 0. -1
</event>
<event>
 4 80 1 -1 -1 -1
 11 -1 0 0 0 0 0 0 5 5 0 0. 9.
 -11 -1 0 0 0 0 0 0 -4.96246 4.96246 0 0. 9.
 15 1 1 2 0 0 -0.87554 -4.55722 0.364728 4.98253 1.7768 0. 1
 -15 1 1 2 0 0 0.87554 4.55722 -0.327184 4.97992 1.7768 0. -1
</event>
<event>
 4 80 1 -1 -1 -1
 11 -1 0 0 0 0 0 0 5 5 0 0. 9.
 -11 -1 0 0 0 0 0 0 -4.99994 4.99994 0 0. 9.
 15 1 1 2 0 0 -2.92873 1.12415 3.46425 4.99999 1.7768 0. 1
 -15 1 1 2 0 0 2.92873 -1.12415 -3.46419 4.99995 1.7768 0. -1
</event>
<event>
 4 80 1 -1 -1 -1
 11 -1 0 0 0 0 0 0 2.56892 2.56892 0 0. 9.
 -11 -1 0 0 0 0 0 0 -5 5 0 0. 9.
 15 1 1 2 0 0 2.23196 -1.81589 -2.46841 4.18687 1.7768 0. -1
 -15 1 1 2 0 0 -2.23196 1.81589 0.0373251 3.38205 1.7768 0. 1
</event>
<event>
 4 80 1 -1 -1 -1
 11 -1 0 0 0 0 0 0 4.97217 4.97217 0 0. 9.
 -11 -1 0 0 0 0 0 0 -5 5 0 0. 9.
 15 1 1 2 0 0 -0.603401 4.39083 -1.44907 4.99009 1.7768 0. 1
 -15 1 1 2 0 0 0.603401 -4.39083 1.42124 4.98208 1.7768 0. -1
</event>
<event>
 4 80 1 -1 -1 -1
 11 -1 0 0 0 0 0 0 4.99688 4.99688 0 0. 9.
 -11 -1 0 0 0 0 0 0 -4.75259 4.75259 0 0. 9.
 15 1 1 2 0 0 4.19188 0.673936 -1.47971 4.83459 1.7768 0. -1
 -15 1 1 2 0 0 -4.19188 -0.673936 1.724 4.91487 1.7768 0. 1
</event>
<event>
 4 80 1 -1 -1 -1
 11 -1 0 0 0 0 0 0 2.96145 2.96145 0 0. 9.
 -11 -1 0 0 0 0 0 0 -5 5 0 0. 9.
 15 1 1 2 0 0 0.0528942 2.6855 1.15924 3.42291 1.7768 0. 1
 -15 1 1 2 0 0 -0.0528942 -2.6855 -3.19779 4.53854 1.7768 0. -1
</event>
<event>
 4 80 1 -1 -1 -1
 11 -1 0 0 0 0 0 0 1.33322 1.33322 0 0. 9.
 -11 -1 0 0 0 0 0 0 -5 5 0 0. 9.
 15 1 1 2 0 0 0.315356 1.71916 -2.65925 3.64476 1.7768 0. -1
 -15 1 1 2 0 0 -0.315356 -1.71916 -1.00753 2.68846 1.7768 0. 1
</event>
<event>
 4 80 1 -1 -1 -1
 11 -1 0 0 0 0 0 0 5 5 0 0. 9.
 -11 -1 0 0 0 0 0 0 -4.98948 4.98948 0 0. 9.
 15 1 1 2 0 0 1.48681 -4.25152 1.23151 4.99603 1.7768 0. -1
 -15 1 1 2 0 0 -1.48681 4.25152 -1.22099 4.99345 1.7768 0. 1
</event>
<event>
 4 80 1 -1 -1 -1
 11 -1 0 0 0 0 0 0 4.99995 4.99995 0 0. 9.
 -11 -1 0 0 0 0 0 0 -5 5 0 0. 9.
 15 1 1 2 0 0 -4.65855 0.35182 0.127013 4.99997 1.7768 0. -1
 -15 1 1 2 0 0 4.65855 -0.35182 -0.127068 4.99997 1.7768 0. 1
</event>
<event>
 4 80 1 -1 -1 -1
 11 -1 0 0 0 0 0 0 5 5 0 0. 9.
 -11 -1 0 0 0 0 0 0 -4.80268 4.80268 0 0. 9.
 15 1 1 2 0 0 -4.10021 0.4655 -1.85807 4.86195 1.7768 0. -1
 -15 1 1 2 0 0 4.10021 -0.4655 2.05539 4.94073 1.7768 0. 1
</event>
<event>
 4 80 1 -1 -1 -1
 11 -1 0 0 0 0 0 0 3.13292 3.13292 0 0. 9.
 -11 -1 0 0 0 0 0 0 -5 5 0 0. 9.
 15 1 1 2 0 0 -1.9636 -0.32178 -3.9374 4.75606 1.7768 0. 1
 -15 1 1 2 0 0 1.9636 0.32178 2.07032 3.37686 1.7768 0. -1
</event>
<event>
 4 80 1 -1 -1 -1
 11 -1 0 0 0 0 0 0 5 5 0 0. 9.
 -11 -1 0 0 0 0 0 0 -4.99962 4.99962 0 0. 9.
 15 1 1 2 0 0 0.773448 -0.704623 -4.55455 4.99964 1.7768 0. 1
 -15 1 1 2 0 0 -0.773448 0.704623 4.55493 4.99998 1.7768 0. -1
</event>
<event>
 4 80 1 -1 -1 -1
 11 -1 0 0 0 0 0 0 5 5 0 0. 9.
 -11 -1 0 0 0 0 0 0 -4.99969 4.99969 0 0. 9.
 15 1 1 2 0 0 -2.29905 4.04739 0.417033 4.99986 1.7768 0. -1
 -15 1 1 2 0 0 2.29905 -4.04739 -0.416727 4.99983 1.7768 0. 1
</event>
<event>
 4 80 1 -1 -1 -1
 11 -1 0 0 0 0 0 0 4.86834 4.86834 0 0. 9.
 -11 -1 0 0 0 0 0 0 -5 5 0 0. 9.
 15 1 1 2 0 0 -0.243276 4.4876 0.927367 4.92092 1.7768 0. 1
 -15 1 1 2 0 0 0.243276 -4.4876 -1.05903 4.94742 1.7768 0. -1
</event>
<event>
 4 80 1 -1 -1 -1
 11 -1 0 0 0 0 0 0 4.03072 4.03072 0 0. 9.
 -11 -1 0 0 0 0 0 0 -5 5 0 0. 9.
 15 1 1 2 0 0 0.458894 3.67619 -2.30371 4.7106 1.7768 0. -1
 -15 1 1 2 0 0 -0.458894 -3.67619 1.33444 4.32012 1.7768 0. 1
</event>
<event>
 4 80 1 -1 -1 -1
 11 -1 0 0 0 0 0 0 5 5 0 0. 9.
 -11 -1 0 0 0 0 0 0 -5 5 0 0. 9.
 15 1 1 2 0 0 1.8054 -2.75097 3.31888 5 1.7768 0. 1
 -15 1 1 2 0 0 -1.8054 2.75097 -3.31888 5 1.7768 0. -1
</event>
<event>
 4 80 1 -1 -1 -1
 11 -1 0 0 0 0 0 0 5 5 0 0. 9.
 -11 -1 0 0 0 0 0 0 -5 5 0 0. 9.
 15 1 1 2 0 0 -3.2539 -2.06603 -2.64309 5 1.7768 0. -1
 -15 1 1 2 0 0 3.2539 2.06603 2.64309 5 1.7768 0. 1
</event>
<event>
 4 80 1 -1 -1 -1
 11 -1 0 0 0 0 0 0 5 5 0 0. 9.
 -11 -1 0 0 0 0 0 0 -5 5 0 0. 9.
 15 1 1 2 0 0 -3.04955 3.54047 0.087175 5 1.7768 0. 1
 -15 1 1 2 0 0 3.04955 -3.54047 -0.087171 5 1.7768 0. -1
</event>
<event>
 4 80 1 -1 -1 -1
 11 -1 0 0 0 0 0 0 4.95125 4.95125 0 0. 9.
 -11 -1 0 0 0 0 0 0 -3.24206 3.24206 0 0. 9.
 15 1 1 2 0 0 -1.81334 -0.252612 -2.304 3.43775 1.7768 0. -1
 -15 1 1 2 0 0 1.81334 0.252612 4.01318 4.75556 1.7768 0. 1
</event>
<event>
 4 80 1 -1 -1 -1
 11 -1 0 0 0 0 0 0 5 5 0 0. 9.
 -11 -1 0 0 0 0 0 0 -4.99992 4.99992 0 0. 9.
 15 1 1 2 0 0 -1.97447 1.98857 3.74022 4.99999 1.7768 0. -1
 -15 1 1 2 0 0 1.97447 -1.98857 -3.74014 4.99993 1.7768 0. 1
</event>
<event>
 4 80 1 -1 -1 -1
 11 -1 0 0 0 0 0 0 5 5 0 0. 9.
 -11 -1 0 0 0 0 0 0 -5 5 0 0. 9.
 15 1 1 2 0 0 2.40982 0.129202 4.00229 5 1.7768 0. 1
 -15 1 1 2 0 0 -2.40982 -0.129202 -4.00229 5 1.7768 0. -1
</event>
<event>
 4 80 1 -1 -1 -1
 11 -1 0 0 0 0 0 0 5 5 0 0. 9.
 -11 -1 0 0 0 0 0 0 -5 5 0 0. 9.
 15 1 1 2 0 0 4.09584 1.82579 1.31637 5 1.7768 0. -1
 -15 1 1 2 0 0 -4.09584 -1.82579 -1.31637 5 1.7768 0. 1
</event>
<event>
 4 80 1 -1 -1 -1
 11 -1 0 0 0 0 0 0 5 5 0 0. 9.
 -11 -1 0 0 0 0 0 0 -5 5 0 0. 9.
 15 1 1 2 0 0 -2.33093 0.115162 -4.04917 5 1.7768 0. -1
 -15 1 1 2 0 0 2.33093 -0.115162 4.04917 5 1.7768 0. 1
</event>
<event>
 4 80 1 -1 -1 -1
 11 -1 0 0 0 0 0 0 4.0391 4.0391 0 0. 9.
 -11 -1 0 0 0 0 0 0 -4.99998 4.99998 0 0. 9.
 15 1 1 2 0 0 -1.59867 -1.72137 -3.89372 4.88238 1.7768 0. 1
 -15 1 1 2 0 0 1.59867 1.72137 2.93284 4.1567 1.7768 0. -1
</event>
<event>
 4 80 1 -1 -1 -1
 11 -1 0 0 0 0 0 0 4.9997 4.9997 0 0. 9.
 -11 -1 0 0 0 0 0 0 -5 5 0 0. 9.
 15 1 1 2 0 0 -1.16185 -4.4256 0.951163 4.99982 1.7768 0. -1
 -15 1 1 2 0 0 1.16185 4.4256 -0.95146 4.99988 1.7768 0. 1
</event>
<event>
 4 80 1 -1 -1 -1
 11 -1 0 0 0 0 0 0 5 5 0 0. 9.
 -11 -1 0 0 0 0 0 0 -4.99441 4.99441 0 0. 9.
 15 1 1 2 0 0 -0.169934 -1.65093 -4.36296 4.99476 1.7768 0. -1
 -15 1 1 2 0 0 0.169934 1.65093 4.36856 4.99965 1.7768 0. 1
</event>
<event>
 4 80 1 -1 -1 -1
 11 -1 0 0 0 0 0 0 2.4565 2.4565 0 0. 9.
 -11 -1 0 0 0 0 0 0 -5 5 0 0. 9.
 15 1 1 2 0 0 -1.89739 -0.514787 -3.71148 4.56047 1.7768 0. 1
 -15 1 1 2 0 0 1.89739 0.514787 1.16798 2.89603 1.7768 0. -1
</event>
<event>
 4 80 1 -1 -1 -1
 11 -1 0 0 0 0 0 0 4.99981 4.99981 0 0. 9.
 -11 -1 0 0 0 0 0 0 -3.05609 3.05609 0 0. 9.
 15 1 1 2 0 0 -2.06774 1.4143 -1.51967 3.42679 1.7768 0. 1
 -15 1 1 2 0 0 2.06774 -1.4143 3.46339 4.6291 1.7768 0. -1
</event>
<event>
 4 80 1 -1 -1 -1
 11 -1 0 0 0 0 0 0 5 5 0 0. 9.
 -11 -1 0 0 0 0 0 0 -4.89754 4.89754 0 0. 9.
 15 1 1 2 0 0 -2.91651 3.40407 1.16318 4.96028 1.7768 0. 1
 -15 1 1 2 0 0 2.91651 -3.40407 -1.06072 4.93726 1.7768 0. -1
</event>
<event>
 4 80 1 -1 -1 -1
 11 -1 0 0 0 0 0 0 4.99973 4.99973 0 0. 9.
 -11 -1 0 0 0 0 0 0 -5 5 0 0. 9.
 15 1 1 2 0 0 2.61069 -0.560743 -3.8356 4.99997 1.7768 0. -1
 -15 1 1 2 0 0 -2.61069 0.560743 3.83532 4.99976 1.7768 0. 1
</event>
<event>
 4 80 1 -1 -1 -1
 11 -1 0 0 0 0 0 0 4.97329 4.97329 0 0. 9.
 -11 -1 0 0 0 0 0 0 -4.65565 4.65565 0 0. 9.
 15 1 1 2 0 0 -3.85052 1.21115 -1.76649 4.75096 1.7768 0. -1
 -15 1 1 2 0 0 3.85052 -1.21115 2.08413 4.87798 1.7768 0. 1
</event>
<event>
 4 80 1 -1 -1 -1
 11 -1 0 0 0 0 0 0 4.9731 4.9731 0 0. 9.
 -11 -1 0 0 0 0 0 0 -5 5 0 0. 9.
 15 1 1 2 0 0 1.61378 2.38568 3.64881 4.97667 1.7768 0. 1
 -15 1 1 2 0 0 -1.61378 -2.38568 -3.6757 4.99643 1.7768 0. -1
</event>
<event>
 4 80 1 -1 -1 -1
 11 -1 0 0 0 0 0 0 4.97136 4.97136 0 0. 9.
 -11 -1 0 0 0 0 0 0 -4.99999 4.99999 0 0. 9.
 15 1 1 2 0 0 1.20685 2.07117 3.97979 4.9742 1.7768 0. 1
 -15 1 1 2 0 0 -1.20685 -2.07117 -4.00843 4.99714 1.7768 0. -1
</event>
<event>
 4 80 1 -1 -1 -1
 11 -1 0 0 0 0 0 0 4.96006 4.96006 0 0. 9.
 -11 -1 0 0 0 0 0 0 -5 5 0 0. 9.
 15 1 1 2 0 0 -4.11872 1.13633 1.82056 4.97265 1.7768 0. -1
 -15 1 1 2 0 0 4.11872 -1.13633 -1.8605 4.98741 1.7768 0. 1
</event>
<event>
 4 80 1 -1 -1 -1
 11 -1 0 0 0 0 0 0 4.78703 4.78703 0 0. 9.
 -11 -1 0 0 0 0 0 0 -5 5 0 0. 9.
 15 1 1 2 0 0 -4.29607 -0.688413 -1.46595 4.9231 1.7768 0. 1
 -15 1 1 2 0 0 4.29607 0.688413 1.25298 4.86393 1.7768 0. -1
</event>
<event>
 4 80 1 -1 -1 -1
 11 -1 0 0 0 0 0 0 5 5 0 0. 9.
 -11 -1 0 0 0 0 0 0 -5 5 0 0. 9.
 15 1 1 2 0 0 -0.29881 2.08351 4.17277 5 1.7768 0. 1
 -15 1 1 2 0 0 0.29881 -2.08351 -4.17277 5 1.7768 0. -1
</event>
<event>
 4 80 1 -1 -1 -1
 11 -1 0 0 0 0 0 0 4.99821 4.99821 0 0. 9.
 -11 -1 0 0 0 0 0 0 -4.99037 4.99037 0 0. 9.
 15 1 1 2 0 0 -1.02176 0.108731 4.55688 4.99787 1.7768 0. -1
 -15 1 1 2 0 0 1.02176 -0.108731 -4.54903 4.99071 1.7768 0. 1
</event>
<event>
 4 80 1 -1 -1 -1
 11 -1 0 0 0 0 0 0 5 5 0 0. 9.
 -11 -1 0 0 0 0 0 0 -4.9046 4.9046 0 0. 9.
 15 1 1 2 0 0 0.355663 2.19068 -4.00708 4.91324 1.7768 0. 1
 -15 1 1 2 0 0 -0.355663 -2.19068 4.10248 4.99136 1.7768 0. -1
</event>
<event>
 4 80 1 -1 -1 -1
 11 -1 0 0 0 0 0 0 5 5 0 0. 9.
 -11 -1 0 0 0 0 0 0 -3.84436 3.84436 0 0. 9.
 15 1 1 2 0 0 -0.920803 2.03252 -2.78039 3.98338 1.7768 0. -1
 -15 1 1 2 0 0 0.920803 -2.03252 3.93603 4.86098 1.7768 0. 1
</event>
<event>
 4 80 1 -1 -1 -1
 11 -1 0 0 0 0 0 0 5 5 0 0. 9.
 -11 -1 0 0 0 0 0 0 -4.67017 4.67017 0 0. 9.
 15 1 1 2 0 0 -1.08331 -0.798917 -4.12492 4.68876 1.7768 0. -1
 -15 1 1 2 0 0 1.08331 0.798917 4.45475 4.9814 1.7768 0. 1
</event>
<event>
 4 80 1 -1 -1 -1
 11 -1 0 0 0 0 0 0 4.90305 4.90305 0 0. 9.
 -11 -1 0 0 0 0 0 0 -5 5 0 0. 9.
 15 1 1 2 0 0 -4.32662 -1.53536 0.481212 4.94634 1.7768 0. -1
 -15 1 1 2 0 0 4.32662 1.53536 -0.57816 4.95671 1.7768 0. 1
</event>
<event>
 4 80 1 -1 -1 -1
 11 -1 0 0 0 0 0 0 4.56077 4.56077 0 0. 9.
 -11 -1 0 0 0 0 0 0 -2.67842 2.67842 0 0. 9.
 15 1 1 2 0 0 -0.142532 2.73037 -0.361695 3.28082 1.7768 0. -1
 -15 1 1 2 0 0 0.142532 -2.73037 2.24404 3.95837 1.7768 0. 1
</event>
<event>
 4 80 1 -1 -1 -1
 11 -1 0 0 0 0 0 0 5 5 0 0. 9.
 -11 -1 0 0 0 0 0 0 -4.99997 4.99997 0 0. 9.
 15 1 1 2 0 0 -2.71205 -3.46751 1.5695 4.99999 1.7768 0. 1
 -15 1 1 2 0 0 2.71205 3.46751 -1.56947 4.99998 1.7768 0. -1
</event>
<event>
 4 80 1 -1 -1 -1
 11 -1 0 0 0 0 0 0 1.60593 1.60593 0 0. 9.
 -11 -1 0 0 0 0 0 0 -5 5 0 0. 9.
 15 1 1 2 0 0 -2.14675 0.448831 -1.40691 3.1539 1.7768 0. -1
 -15 1 1 2 0 0 2.14675 -0.448831 -1.98716 3.45203 1.7768 0. 1
</event>
<event>
 4 80 1 -1 -1 -1
 11 -1 0 0 0 0 0 0 4.99998 4.99998 0 0. 9.
 -11 -1 0 0 0 0 0 0 -4.99861 4.99861 0 0. 9.
 15 1 1 2 0 0 -0.823897 3.98219 -2.30119 4.99898 1.7768 0. -1
 -15 1 1 2 0 0 0.823897 -3.98219 2.30256 4.99961 1.7768 0. 1
</event>
<event>
 4 80 1 -1 -1 -1
 11 -1 0 0 0 0 0 0 4.99976 4.99976 0 0. 9.
 -11 -1 0 0 0 0 0 0 -3.87275 3.87275 0 0. 9.
 15 1 1 2 0 0 2.10178 -3.3568 1.29017 4.52856 1.7768 0. 1
 -15 1 1 2 0 0 -2.10178 3.3568 -0.16316 4.34395 1.7768 0. -1
</event>
<event>
 4 80 1 -1 -1 -1
 11 -1 0 0 0 0 0 0 5 5 0 0. 9.
 -11 -1 0 0 0 0 0 0 -4.94836 4.94836 0 0. 9.
 15 1 1 2 0 0 -3.27105 -0.869544 -3.15671 4.95766 1.7768 0. -1
 -15 1 1 2 0 0 3.27105 0.869544 3.20834 4.9907 1.7768 0. 1
</event>
<event>
 4 80 1 -1 -1 -1
 11 -1 0 0 0 0 0 0 4.99988 4.99988 0 0. 9.
 -11 -1 0 0 0 0 0 0 -5 5 0 0. 9.
 15 1 1 2 0 0 -0.0542326 4.55883 1.02744 4.99993 1.7768 0. -1
 -15 1 1 2 0 0 0.0542326 -4.55883 -1.02756 4.99995 1.7768 0. 1
</event>
<event>
 4 80 1 -1 -1 -1
 11 -1 0 0 0 0 0 0 5 5 0 0. 9.
 -11 -1 0 0 0 0 0 0 -4.99998 4.99998 0 0. 9.
 15 1 1 2 0 0 4.53784 -1.11717 0.0460785 4.99999 1.7768 0. -1
 -15 1 1 2 0 0 -4.53784 1.11717 -0.0460609 4.99999 1.7768 0. 1
</event>
<event>
 4 80 1 -1 -1 -1
 11 -1 0 0 0 0 0 0 4.76921 4.76921 0 0. 9.
 -11 -1 0 0 0 0 0 0 -4.99958 4.99958 0 0. 9.
 15 1 1 2 0 0 -1.60482 -3.18367 -2.93999 4.95101 1.7768 0. 1
 -15 1 1 2 0 0 1.60482 3.18367 2.70962 4.81778 1.7768 0. -1
</event>
<event>
 4 80 1 -1 -1 -1
 11 -1 0 0 0 0 0 0 5 5 0 0. 9.
 -11 -1 0 0 0 0 0 0 -4.98906 4.98906 0 0. 9.
 15 1 1 2 0 0 1.26069 -4.41605 0.840196 4.99545 1.7768 0. -1
 -15 1 1 2 0 0 -1.26069 4.41605 -0.82926 4.99362 1.7768 0. 1
</event>
<event>
 4 80 1 -1 -1 -1
 11 -1 0 0 0 0 0 0 5 5 0 0. 9.
 -11 -1 0 0 0 0 0 0 -5 5 0 0. 9.
 15 1 1 2 0 0 -4.56516 -0.367337 0.930936 5 1.7768 0. 1
 -15 1 1 2 0 0 4.56516 0.367337 -0.930936 5 1.7768 0. -1
</event>
<event>
 4 80 1 -1 -1 -1
 11 -1 0 0 0 0 0 0 4.90332 4.90332 0 0. 9.
 -11 -1 0 0 0 0 0 0 -4.9872 4.9872 0 0. 9.
 15 1 1 2 0 0 -0.332872 4.39005 -1.42501 4.95699 1.7768 0. -1
 -15 1 1 2 0 0 0.332872 -4.39005 1.34112 4.93353 1.7768 0. 1
</event>
<event>
 4 80 1 -1 -1 -1
 11 -1 0 0 0 0 0 0 4.99999 4.99999 0 0. 9.
 -11 -1 0 0 0 0 0 0 -5 5 0 0. 9.
 15 1 1 2 0 0 0.221038 4.26312 1.90241 4.99999 1.7768 0. 1
 -15 1 1 2 0 0 -0.221038 -4.26312 -1.90242 5 1.7768 0. -1
</event>
<event>
 4 80 1 -1 -1 -1
 11 -1 0 0 0 0 0 0 5 5 0 0. 9.
 -11 -1 0 0 0 0 0 0 -4.96793 4.96793 0 0. 9.
 15 1 1 2 0 0 1.85694 -4.11584 1.15337 4.98762 1.7768 0. 1
 -15 1 1 2 0 0 -1.85694 4.11584 -1.1213 4.9803 1.7768 0. -1
</event>
<event>
 4 80 1 -1 -1 -1
 11 -1 0 0 0 0 0 0 4.99114 4.99114 0 0. 9.
 -11 -1 0 0 0 0 0 0 -5 5 0 0. 9.
 15 1 1 2 0 0 -3.36449 1.38374 2.92191 4.99298 1.7768 0. 1
 -15 1 1 2 0 0 3.36449 -1.38374 -2.93076 4.99817 1.7768 0. -1
</event>
<event>
 4 80 1 -1 -1 -1
 11 -1 0 0 0 0 0 0 4.36572 4.36572 0 0. 9.
 -11 -1 0 0 0 0 0 0 -4.99804 4.99804 0 0. 9.
 15 1 1 2 0 0 -2.78842 -2.74113 1.52468 4.55757 1.7768 0. -1
 -15 1 1 2 0 0 2.78842 2.74113 -2.157 4.80619 1.7768 0. 1
</event>
<event>
 4 80 1 -1 -1 -1
 11 -1 0 0 0 0 0 0 4.92633 4.92633 0 0. 9.
 -11 -1 0 0 0 0 0 0 -5 5 0 0. 9.
 15 1 1 2 0 0 -2.93662 -3.53683 -0.620851 4.9675 1.7768 0. 1
 -15 1 1 2 0 0 2.93662 3.53683 0.547185 4.95883 1.7768 0. -1
</event>
<event>
 4 80 1 -1 -1 -1
 11 -1 0 0 0 0 0 0 5 5 0 0. 9.
 -11 -1 0 0 0 0 0 0 -5 5 0 0. 9.
 15 1 1 2 0 0 2.6941 -2.89589 2.48956 5 1.7768 0. -1
 -15 1 1 2 0 0 -2.6941 2.89589 -2.48956 5 1.7768 0. 1
</event>
<event>
 4 80 1 -1 -1 -1
 11 -1 0 0 0 0 0 0 5 5 0 0. 9.
 -11 -1 0 0 0 0 0 0 -4.99997 4.99997 0 0. 9.
 15 1 1 2 0 0 -1.10687 2.57071 3.74279 5 1.7768 0. -1
 -15 1 1 2 0 0 1.10687 -2.57071 -3.74277 4.99998 1.7768 0. 1
</event>
<event>
 4 80 1 -1 -1 -1
 11 -1 0 0 0 0 0 0 5 5 0 0. 9.
 -11 -1 0 0 0 0 0 0 -5 5 0 0. 9.
 15 1 1 2 0 0 -1.64004 1.75602 4.00861 5 1.7768 0. 1
 -15 1 1 2 0 0 1.64004 -1.75602 -4.00861 5 1.7768 0. -1
</event>
<event>
 4 80 1 -1 -1 -1
 11 -1 0 0 0 0 0 0 3.1238 3.1238 0 0. 9.
 -11 -1 0 0 0 0 0 0 -5 5 0 0. 9.
 15 1 1 2 0 0 -0.531021 -1.49364 -4.17984 4.81058 1.7768 0. -1
 -15 1 1 2 0 0 0.531021 1.49364 2.30363 3.31321 1.7768 0. 1
</event>
<event>
 4 80 1 -1 -1 -1
 11 -1 0 0 0 0 0 0 4.99892 4.99892 0 0. 9.
 -11 -1 0 0 0 0 0 0 -5 5 0 0. 9.
 15 1 1 2 0 0 2.83335 0.593445 -3.66889 4.99986 1.7768 0. 1
 -15 1 1 2 0 0 -2.83335 -0.593445 3.66781 4.99906 1.7768 0. -1
</event>
<event>
 4 80 1 -1 -1 -1
 11 -1 0 0 0 0 0 0 4.99382 4.99382 0 0. 9.
 -11 -1 0 0 0 0 0 0 -4.99995 4.99995 0 0. 9.
 15 1 1 2 0 0 4.36552 -1.06634 -1.27441 4.99767 1.7768 0. -1
 -15 1 1 2 0 0 -4.36552 1.06634 1.26828 4.99611 1.7768 0. 1
</event>
<event>
 4 80 1 -1 -1 -1
 11 -1 0 0 0 0 0 0 2.91297 2.91297 0 0. 9.
 -11 -1 0 0 0 0 0 0 -5 5 0 0. 9.
 15 1 1 2 0 0 2.6529 -2.08098 -0.839306 3.90263 1.7768 0. 1
 -15 1 1 2 0 0 -2.6529 2.08098 -1.24772 4.01035 1.7768 0. -1
</event>
<event>
 4 80 1 -1 -1 -1
 11 -1 0 0 0 0 0 0 5 5 0 0. 9.
 -11 -1 0 0 0 0 0 0 -4.9977 4.9977 0 0. 9.
 15 1 1 2 0 0 0.975378 -0.78868 -4.49967 4.99781 1.7768 0. -1
 -15 1 1 2 0 0 -0.975378 0.78868 4.50197 4.99989 1.7768 0. 1
</event>
<event>
 4 80 1 -1 -1 -1
 11 -1 0 0 0 0 0 0 4.58832 4.58832 0 0. 9.
 -11 -1 0 0 0 0 0 0 -1.68143 1.68143 0 0. 9.
 15 1 1 2 0 0 -1.70611 -0.536285 0.137812 2.5249 1.7768 0. -1
 -15 1 1 2 0 0 1.70611 0.536285 2.76908 3.74485 1.7768 0. 1
</event>
<event>
 4 80 1 -1 -1 -1
 11 -1 0 0 0 0 0 0 5 5 0 0. 9.
 -11 -1 0 0 0 0 0 0 -3.79424 3.79424 0 0. 9.
 15 1 1 2 0 0 0.0352473 -0.754203 -3.33862 3.85671 1.7768 0. 1
 -15 1 1 2 0 0 -0.0352473 0.754203 4.54438 4.93753 1.7768 0. -1
</event>
<event>
 4 80 1 -1 -1 -1
 11 -1 0 0 0 0 0 0 4.86941 4.86941 0 0. 9.
 -11 -1 0 0 0 0 0 0 -5 5 0 0. 9.
 15 1 1 2 0 0 -3.61853 -2.47373 1.34061 4.9161 1.7768 0. 1
 -15 1 1 2 0 0 3.61853 2.47373 -1.47121 4.95331 1.7768 0. -1
</event>
<event>
 4 80 1 -1 -1 -1
 11 -1 0 0 0 0 0 0 2.64109 2.64109 0 0. 9.
 -11 -1 0 0 0 0 0 0 -5 5 0 0. 9.
 15 1 1 2 0 0 -0.709397 -1.61112 1.59197 2.96497 1.7768 0. 1
 -15 1 1 2 0 0 0.709397 1.61112 -3.95087 4.67612 1.7768 0. -1
</event>
<event>
 4 80 1 -1 -1 -1
 11 -1 0 0 0 0 0 0 4.99741 4.99741 0 0. 9.
 -11 -1 0 0 0 0 0 0 -5 5 0 0. 9.
 15 1 1 2 0 0 -4.55105 1.00872 -0.317089 4.99879 1.7768 0. -1
 -15 1 1 2 0 0 4.55105 -1.00872 0.3145 4.99862 1.7768 0. 1
</event>
<event>
 4 80 1 -1 -1 -1
 11 -1 0 0 0 0 0 0 4.99999 4.99999 0 0. 9.
 -11 -1 0 0 0 0 0 0 -5 5 0 0. 9.
 15 1 1 2 0 0 -3.50281 -3.09275 0.086169 4.99999 1.7768 0. 1
 -15 1 1 2 0 0 3.50281 3.09275 -0.0861801 4.99999 1.7768 0. -1
</event>
<event>
 4 80 1 -1 -1 -1
 11 -1 0 0 0 0 0 0 5 5 0 0. 9.
 -11 -1 0 0 0 0 0 0 -5 5 0 0. 9.
 15 1 1 2 0 0 2.50753 2.08273 -3.34915 5 1.7768 0. 1
 -15 1 1 2 0 0 -2.50753 -2.08273 3.34915 5 1.7768 0. -1
</event>
<event>
 4 80 1 -1 -1 -1
 11 -1 0 0 0 0 0 0 5 5 0 0. 9.
 -11 -1 0 0 0 0 0 0 -4.95284 4.95284 0 0. 9.
 15 1 1 2 0 0 -2.29391 -0.955269 -3.90481 4.95781 1.7768 0. 1
 -15 1 1 2 0 0 2.29391 0.955269 3.95197 4.99503 1.7768 0. -1
</event>
<event>
 4 80 1 -1 -1 -1
 11 -1 0 0 0 0 0 0 5 5 0 0. 9.
 -11 -1 0 0 0 0 0 0 -4.99834 4.99834 0 0. 9.
 15 1 1 2 0 0 0.946382 -4.31796 1.51528 4.99942 1.7768 0. -1
 -15 1 1 2 0 0 -0.946382 4.31796 -1.51362 4.99892 1.7768 0. 1
</event>
<event>
 4 80 1 -1 -1 -1
 11 -1 0 0 0 0 0 0 5 5 0 0. 9.
 -11 -1 0 0 0 0 0 0 -4.92038 4.92038 0 0. 9.
 15 1 1 2 0 0 -1.98806 -2.12138 3.6443 4.98912 1.7768 0. 1
 -15 1 1 2 0 0 1.98806 2.12138 -3.56469 4.93126 1.7768 0. -1
</event>
<event>
 4 80 1 -1 -1 -1
 11 -1 0 0 0 0 0 0 5 5 0 0. 9.
 -11 -1 0 0 0 0 0 0 -1.30569 1.30569 0 0. 9.
 15 1 1 2 0 0 0.668666 -1.35081 0.553612 2.395 1.7768 0. 1
 -15 1 1 2 0 0 -0.668666 1.35081 3.1407 3.91069 1.7768 0. -1
</event>
<event>
 4 80 1 -1 -1 -1
 11 -1 0 0 0 0 0 0 4.99819 4.99819 0 0. 9.
 -11 -1 0 0 0 0 0 0 -2.37601 2.37601 0 0. 9.
 15 1 1 2 0 0 2.23087 1.819 2.01472 3.93731 1.7768 0. 1
 -15 1 1 2 0 0 -2.23087 -1.819 0.607452 3.4369 1.7768 0. -1
</event>
<event>
 4 80 1 -1 -1 -1
 11 -1 0 0 0 0 0 0 5 5 0 0. 9.
 -11 -1 0 0 0 0 0 0 -5 5 0 0. 9.
 15 1 1 2 0 0 -2.22286 -1.35234 -3.88231 5 1.7768 0. -1
 -15 1 1 2 0 0 2.22286 1.35234 3.88231 5 1.7768 0. 1
</event>
<event>
 4 80 1 -1 -1 -1
 11 -1 0 0 0 0 0 0 5 5 0 0. 9.
 -11 -1 0 0 0 0 0 0 -5 5 0 0. 9.
 15 1 1 2 0 0 -1.70558 -4.2959 -0.691738 5 1.7768 0. 1
 -15 1 1 2 0 0 1.70558 4.2959 0.691738 5 1.7768 0. -1
</event>
<event>
 4 80 1 -1 -1 -1
 11 -1 0 0 0 0 0 0 5 5 0 0. 9.
 -11 -1 0 0 0 0 0 0 -5 5 0 0. 9.
 15 1 1 2 0 0 1.99888 -2.5247 3.38712 5 1.7768 0. -1
 -15 1 1 2 0 0 -1.99888 2.5247 -3.38712 5 1.7768 0. 1
</event>
<event>
 4 80 1 -1 -1 -1
 11 -1 0 0 0 0 0 0 5 5 0 0. 9.
 -11 -1 0 0 0 0 0 0 -4.99972 4.99972 0 0. 9.
 15 1 1 2 0 0 0.749659 -2.65885 -3.7694 4.99976 1.7768 0. -1
 -15 1 1 2 0 0 -0.749659 2.65885 3.76968 4.99997 1.7768 0. 1
</event>
<event>
 4 80 1 -1 -1 -1
 11 -1 0 0 0 0 0 0 4.84742 4.84742 0 0. 9.
 -11 -1 0 0 0 0 0 0 -4.99996 4.99996 0 0. 9.
 15 1 1 2 0 0 3.94088 -1.19971 -2.10367 4.9551 1.7768 0. 1
 -15 1 1 2 0 0 -3.94088 1.19971 1.95113 4.89229 1.7768 0. -1
</event>
<event>
 4 80 1 -1 -1 -1
 11 -1 0 0 0 0 0 0 5 5 0 0. 9.
 -11 -1 0 0 0 0 0 0 -5 5 0 0. 9.
 15 1 1 2 0 0 -0.775024 -3.64421 2.82158 5 1.7768 0. -1
 -15 1 1 2 0 0 0.775024 3.64421 -2.82158 5 1.7768 0. 1
</event>
<event>
 4 80 1 -1 -1 -1
 11 -1 0 0 0 0 0 0 5 5 0 0. 9.
 -11 -1 0 0 0 0 0 0 -4.99392 4.99392 0 0. 9.
 15 1 1 2 0 0 -2.34046 -3.61483 -1.80447 4.99586 1.7768 0. -1
 -15 1 1 2 0 0 2.34046 3.61483 1.81055 4.99806 1.7768 0. 1
</event>
<event>
 4 80 1 -1 -1 -1
 11 -1 0 0 0 0 0 0 2.36454 2.36454 0 0. 9.
 -11 -1 0 0 0 0 0 0 -5 5 0 0. 9.
 15 1 1 2 0 0 -0.836166 -1.61149 -3.79915 4.57027 1.7768 0. -1
 -15 1 1 2 0 0 0.836166 1.61149 1.16369 2.79427 1.7768 0. 1
</event>
<event>
 4 80 1 -1 -1 -1
 11 -1 0 0 0 0 0 0 5 5 0 0. 9.
 -11 -1 0 0 0 0 0 0 -5 5 0 0. 9.
 15 1 1 2 0 0 0.87439 1.77094 4.23574 5 1.7768 0. 1
 -15 1 1 2 0 0 -0.87439 -1.77094 -4.23574 5 1.7768 0. -1
</event>
<event>
 4 80 1 -1 -1 -1
 11 -1 0 0 0 0 0 0 5 5 0 0. 9.
 -11 -1 0 0 0 0 0 0 -4.84601 4.84601 0 0. 9.
 15 1 1 2 0 0 0.42958 -4.2467 -1.6124 4.89659 1.7768 0. 1
 -15 1 1 2 0 0 -0.42958 4.2467 1.76639 4.94943 1.7768 0. -1
</event>
<event>
 4 80 1 -1 -1 -1
 11 -1 0 0 0 0 0 0 5 5 0 0. 9.
 -11 -1 0 0 0 0 0 0 -5 5 0 0. 9.
 15 1 1 2 0 0 -2.15433 -0.340298 4.13344 5 1.7768 0. -1
 -15 1 1 2 0 0 2.15433 0.340298 -4.13344 5 1.7768 0. 1
</event>
<event>
 4 80 1 -1 -1 -1
 11 -1 0 0 0 0 0 0 4.99899 4.99899 0 0. 9.
 -11 -1 0 0 0 0 0 0 -4.99958 4.99958 0 0. 9.
 15 1 1 2 0 0 -4.18657 -0.61429 -1.98282 4.9994 1.7768 0. -1
 -15 1 1 2 0 0 4.18657 0.61429 1.98223 4.99917 1.7768 0. 1
</event>
<event>
 4 80 1 -1 -1 -1
 11 -1 0 0 0 0 0 0 5 5 0 0. 9.
 -11 -1 0 0 0 0 0 0 -5 5 0 0. 9.
 15 1 1 2 0 0 1.6939 3.68632 2.32034 5 1.7768 0. -1
 -15 1 1 2 0 0 -1.6939 -3.68632 -2.32034 5 1.7768 0. 1
</event>
<event>
 4 80 1 -1 -1 -1
 11 -1 0 0 0 0 0 0 4.95323 4.95323 0 0. 9.
 -11 -1 0 0 0 0 0 0 -5 5 0 0. 9.
 15 1 1 2 0 0 -1.84297 3.94952 -1.63994 4.98421 1.7768 0. 1
 -15 1 1 2 0 0 1.84297 -3.94952 1.59317 4.96902 1.7768 0. -1
</event>
<event>
 4 80 1 -1 -1 -1
 11 -1 0 0 0 0 0 0 5 5 0 0. 9.
 -11 -1 0 0 0 0 0 0 -4.91037 4.91037 0 0. 9.
 15 1 1 2 0 0 -0.112358 4.46826 1.23489 4.96595 1.7768 0. 1
 -15 1 1 2 0 0 0.112358 -4.46826 -1.14526 4.94442 1.7768 0. -1
</event>
<event>
 4 80 1 -1 -1 -1
 11 -1 0 0 0 0 0 0 4.9364 4.9364 0 0. 9.
 -11 -1 0 0 0 0 0 0 -5 5 0 0. 9.
 15 1 1 2 0 0 2.06048 -2.75586 3.08017 4.94828 1.7768 0. 1
 -15 1 1 2 0 0 -2.06048 2.75586 -3.14377 4.98812 1.7768 0. -1
</event>
<event>
 4 80 1 -1 -1 -1
 11 -1 0 0 0 0 0 0 1.78312 1.78312 0 0. 9.
 -11 -1 0 0 0 0 0 0 -5 5 0 0. 9.
 15 1 1 2 0 0 -1.05864 1.89159 -2.77735 3.94591 1.7768 0. 1
 -15 1 1 2 0 0 1.05864 -1.89159 -0.439528 2.83721 1.7768 0. -1
</event>
<event>
 4 80 1 -1 -1 -1
 11 -1 0 0 0 0 0 0 5 5 0 0. 9.
 -11 -1 0 0 0 0 0 0 -4.86701 4.86701 0 0. 9.
 15 1 1 2 0 0 -4.08327 2.12231 0.06125 4.93343 1.7768 0. 1
 -15 1 1 2 0 0 4.08327 -2.12231 0.0717388 4.93358 1.7768 0. -1
</event>
<event>
 4 80 1 -1 -1 -1
 11 -1 0 0 0 0 0 0 5 5 0 0. 9.
 -11 -1 0 0 0 0 0 0 -4.98523 4.98523 0 0. 9.
 15 1 1 2 0 0 0.915981 3.69052 2.71099 4.99661 1.7768 0. 1
 -15 1 1 2 0 0 -0.915981 -3.69052 -2.69622 4.98862 1.7768 0. -1
</event>
<event>
 4 80 1 -1 -1 -1
 11 -1 0 0 0 0 0 0 5 5 0 0. 9.
 -11 -1 0 0 0 0 0 0 -5 5 0 0. 9.
 15 1 1 2 0 0 1.16813 1.61692 4.2265 5 1.7768 0. 1
 -15 1 1 2 0 0 -1.16813 -1.61692 -4.2265 5 1.7768 0. -1
</event>
<event>
 4 80 1 -1 -1 -1
 11 -1 0 0 0 0 0 0 5 5 0 0. 9.
 -11 -1 0 0 0 0 0 0 -5 5 0 0. 9.
 15 1 1 2 0 0 -1.13672 -3.69214 -2.63025 5 1.7768 0. 1
 -15 1 1 2 0 0 1.13672 3.69214 2.63025 5 1.7768 0. -1
</event>
<event>
 4 80 1 -1 -1 -1
 11 -1 0 0 0 0 0 0 5 5 0 0. 9.
 -11 -1 0 0 0 0 0 0 -5 5 0 0. 9.
 15 1 1 2 0 0 0.757688 -4.27786 -1.72282 5 1.7768 0. -1
 -15 1 1 2 0 0 -0.757688 4.27786 1.72282 5 1.7768 0. 1
</event>
<event>
 4 80 1 -1 -1 -1
 11 -1 0 0 0 0 0 0 5 5 0 0. 9.
 -11 -1 0 0 0 0 0 0 -4.99992 4.99992 0 0. 9.
 15 1 1 2 0 0 -2.7767 0.478149 3.72874 4.99999 1.7768 0. 1
 -15 1 1 2 0 0 2.7767 -0.478149 -3.72866 4.99993 1.7768 0. -1
</event>
<event>
 4 80 1 -1 -1 -1
 11 -1 0 0 0 0 0 0 5 5 0 0. 9.
 -11 -1 0 0 0 0 0 0 -4.83075 4.83075 0 0. 9.
 15 1 1 2 0 0 0.955305 -3.52744 2.84919 4.96297 1.7768 0. -1
 -15 1 1 2 0 0 -0.955305 3.52744 -2.67994 4.86778 1.7768 0. 1
</event>
<event>
 4 80 1 -1 -1 -1
 11 -1 0 0 0 0 0 0 5 5 0 0. 9.
 -11 -1 0 0 0 0 0 0 -4.99996 4.99996 0 0. 9.
 15 1 1 2 0 0 3.84255 2.20052 1.49488 4.99998 1.7768 0. 1
 -15 1 1 2 0 0 -3.84255 -2.20052 -1.49484 4.99997 1.7768 0. -1
</event>
<event>
 4 80 1 -1 -1 -1
 11 -1 0 0 0 0 0 0 4.99939 4.99939 0 0. 9.
 -11 -1 0 0 0 0 0 0 -2.43354 2.43354 0 0. 9.
 15 1 1 2 0 0 1.38913 1.54277 -1.02669 2.91918 1.7768 0. -1
 -15 1 1 2 0 0 -1.38913 -1.54277 3.59254 4.51375 1.7768 0. 1
</event>
<event>
 4 80 1 -1 -1 -1
 11 -1 0 0 0 0 0 0 4.99998 4.99998 0 0. 9.
 -11 -1 0 0 0 0 0 0 -5 5 0 0. 9.
 15 1 1 2 0 0 -4.58995 -0.0849778 -0.875954 4.99999 1.7768 0. 1
 -15 1 1 2 0 0 4.58995 0.0849778 0.875937 4.99999 1.7768 0. -1
</event>
<event>
 4 80 1 -1 -1 -1
 11 -1 0 0 0 0 0 0 3.06001 3.06001 0 0. 9.
 -11 -1 0 0 0 0 0 0 -4.13244 4.13244 0 0. 9.
 15 1 1 2 0 0 -1.58589 -1.52044 -2.71951 3.92177 1.7768 0. 1
 -15 1 1 2 0 0 1.58589 1.52044 1.64708 3.27069 1.7768 0. -1
</event>
<event>
 4 80 1 -1 -1 -1
 11 -1 0 0 0 0 0 0 5 5 0 0. 9.
 -11 -1 0 0 0 0 0 0 -3.68114 3.68114 0 0. 9.
 15 1 1 2 0 0 -3.39676 0.0930869 2.6059 4.63628 1.7768 0. -1
 -15 1 1 2 0 0 3.39676 -0.0930869 -1.28704 4.04486 1.7768 0. 1
</event>
<event>
 4 80 1 -1 -1 -1
 11 -1 0 0 0 0 0 0 4.99944 4.99944 0 0. 9.
 -11 -1 0 0 0 0 0 0 -5 5 0 0. 9.
 15 1 1 2 0 0 -3.84168 -0.243925 2.64952 4.99957 1.7768 0. 1
 -15 1 1 2 0 0 3.84168 0.243925 -2.65009 4.99987 1.7768 0. -1
</event>
<event>
 4 80 1 -1 -1 -1
 11 -1 0 0 0 0 0 0 4.29906 4.29906 0 0. 9.
 -11 -1 0 0 0 0 0 0 -1.81072 1.81072 0 0. 9.
 15 1 1 2 0 0 0.71527 1.95782 1.82558 3.29168 1.7768 0. 1
 -15 1 1 2 0 0 -0.71527 -1.95782 0.662763 2.8181 1.7768 0. -1
</event>
<event>
 4 80 1 -1 -1 -1
 11 -1 0 0 0 0 0 0 5 5 0 0. 9.
 -11 -1 0 0 0 0 0 0 -2.77067 2.77067 0 0. 9.
 15 1 1 2 0 0 -3.22016 -0.207888 0.559351 3.72602 1.7768 0. -1
 -15 1 1 2 0 0 3.22016 0.207888 1.66998 4.04465 1.7768 0. 1
</event>
<event>
 4 80 1 -1 -1 -1
 11 -1 0 0 0 0 0 0 5 5 0 0. 9.
 -11 -1 0 0 0 0 0 0 -4.93945 4.93945 0 0. 9.
 15 1 1 2 0 0 2.05826 -4.15113 0.297153 4.97135 1.7768 0. -1
 -15 1 1 2 0 0 -2.05826 4.15113 -0.236603 4.9681 1.7768 0. 1
</event>
<event>
 4 80 1 -1 -1 -1
 11 -1 0 0 0 0 0 0 5 5 0 0. 9.
 -11 -1 0 0 0 0 0 0 -4.99666 4.99666 0 0. 9.
 15 1 1 2 0 0 2.10452 0.711248 -4.10816 4.99696 1.7768 0. 1
 -15 1 1 2 0 0 -2.10452 -0.711248 4.1115 4.9997 1.7768 0. -1
</event>
<event>
 4 80 1 -1 -1 -1
 11 -1 0 0 0 0 0 0 5 5 0 0. 9.
 -11 -1 0 0 0 0 0 0 -4.99999 4.99999 0 0. 9.
 15 1 1 2 0 0 -0.730413 4.45955 -1.19212 5 1.7768 0. 1
 -15 1 1 2 0 0 0.730413 -4.45955 1.19213 5 1.7768 0. -1
</event>
<event>
 4 80 1 -1 -1 -1
 11 -1 0 0 0 0 0 0 4.99998 4.99998 0 0. 9.
 -11 -1 0 0 0 0 0 0 -5 5 0 0. 9.
 15 1 1 2 0 0 3.493 -2.90293 -1.10189 4.99999 1.7768 0. 1
 -15 1 1 2 0 0 -3.493 2.90293 1.10187 4.99999 1.7768 0. -1
</event>
<event>
 4 80 1 -1 -1 -1
 11 -1 0 0 0 0 0 0 4.99999 4.99999 0 0. 9.
 -11 -1 0 0 0 0 0 0 -5 5 0 0. 9.
 15 1 1 2 0 0 3.51942 2.95585 0.847865 5 1.7768 0. -1
 -15 1 1 2 0 0 -3.51942 -2.95585 -0.84787 5 1.7768 0. 1
</event>
<event>
 4 80 1 -1 -1 -1
 11 -1 0 0 0 0 0 0 4.83601 4.83601 0 0. 9.
 -11 -1 0 0 0 0 0 0 -1.373 1.373 0 0. 9.
 15 1 1 2 0 0 1.33726 -0.0629074 3.2977 3.97804 1.7768 0. -1
 -15 1 1 2 0 0 -1.33726 0.0629074 0.165309 2.23098 1.7768 0. 1
</event>
<event>
 4 80 1 -1 -1 -1
 11 -1 0 0 0 0 0 0 5 5 0 0. 9.
 -11 -1 0 0 0 0 0 0 -4.99857 4.99857 0 0. 9.
 15 1 1 2 0 0 3.07814 2.59601 -2.37013 4.99895 1.7768 0. 1
 -15 1 1 2 0 0 -3.07814 -2.59601 2.37156 4.99962 1.7768 0. -1
</event>
<event>
 4 80 1 -1 -1 -1
 11 -1 0 0 0 0 0 0 4.99999 4.99999 0 0. 9.
 -11 -1 0 0 0 0 0 0 -5 5 0 0. 9.
 15 1 1 2 0 0 3.43382 -2.87186 1.34296 5 1.7768 0. -1
 -15 1 1 2 0 0 -3.43382 2.87186 -1.34296 5 1.7768 0. 1
</event>
<event>
 4 80 1 -1 -1 -1
 11 -1 0 0 0 0 0 0 4.72591 4.72591 0 0. 9.
 -11 -1 0 0 0 0 0 0 -5 5 0 0. 9.
 15 1 1 2 0 0 -3.22305 0.642876 -3.24802 4.95063 1.7768 0. 1
 -15 1 1 2 0 0 3.22305 -0.642876 2.97393 4.77528 1.7768 0. -1
</event>
<event>
 4 80 1 -1 -1 -1
 11 -1 0 0 0 0 0 0 5 5 0 0. 9.
 -11 -1 0 0 0 0 0 0 -4.99998 4.99998 0 0. 9.
 15 1 1 2 0 0 -2.96967 -3.5445 -0.678081 4.99999 1.7768 0. -1
 -15 1 1 2 0 0 2.96967 3.5445 0.6781 4.99999 1.7768 0. 1
</event>
<event>
 4 80 1 -1 -1 -1
 11 -1 0 0 0 0 0 0 4.54737 4.54737 0 0. 9.
 -11 -1 0 0 0 0 0 0 -5 5 0 0. 9.
 15 1 1 2 0 0 3.29696 -0.0932513 2.72666 4.63369 1.7768 0. -1
 -15 1 1 2 0 0 -3.29696 0.0932513 -3.17929 4.91368 1.7768 0. 1
</event>
<event>
 4 80 1 -1 -1 -1
 11 -1 0 0 0 0 0 0 5 5 0 0. 9.
 -11 -1 0 0 0 0 0 0 -4.99968 4.99968 0 0. 9.
 15 1 1 2 0 0 1.08138 -1.23317 -4.37598 4.9997 1.7768 0. 1
 -15 1 1 2 0 0 -1.08138 1.23317 4.3763 4.99998 1.7768 0. -1
</event>
<event>
 4 80 1 -1 -1 -1
 11 -1 0 0 0 0 0 0 4.99999 4.99999 0 0. 9.
 -11 -1 0 0 0 0 0 0 -4.99956 4.99956 0 0. 9.
 15 1 1 2 0 0 -1.73548 3.20003 -2.93029 4.99965 1.7768 0. -1
 -15 1 1 2 0 0 1.73548 -3.20003 2.93073 4.9999 1.7768 0. 1
</event>
<event>
 4 80 1 -1 -1 -1
 11 -1 0 0 0 0 0 0 4.99318 4.99318 0 0. 9.
 -11 -1 0 0 0 0 0 0 -5 5 0 0. 9.
 15 1 1 2 0 0 -2.38751 3.38616 -2.15791 4.99806 1.7768 0. -1
 -15 1 1 2 0 0 2.38751 -3.38616 2.15109 4.99512 1.7768 0. 1
</event>
<event>
 4 80 1 -1 -1 -1
 11 -1 0 0 0 0 0 0 5 5 0 0. 9.
 -11 -1 0 0 0 0 0 0 -5 5 0 0. 9.
 15 1 1 2 0 0 2.32967 -3.9169 -1.03577 5 1.7768 0. -1
 -15 1 1 2 0 0 -2.32967 3.9169 1.03577 5 1.7768 0. 1
</event>
<event>
 4 80 1 -1 -1 -1
 11 -1 0 0 0 0 0 0 5 5 0 0. 9.
 -11 -1 0 0 0 0 0 0 -4.95383 4.95383 0 0. 9.
 15 1 1 2 0 0 -2.91146 3.30112 -1.47273 4.96998 1.7768 0. -1
 -15 1 1 2 0 0 2.91146 -3.30112 1.5189 4.98385 1.7768 0. 1
</event>
<event>
 4 80 1 -1 -1 -1
 11 -1 0 0 0 0 0 0 4.99991 4.99991 0 0. 9.
 -11 -1 0 0 0 0 0 0 -5 5 0 0. 9.
 15 1 1 2 0 0 -2.51971 -3.39932 -1.98437 4.99997 1.7768 0. 1
 -15 1 1 2 0 0 2.51971 3.39932 1.98428 4.99994 1.7768 0. -1
</event>
<event>
 4 80 1 -1 -1 -1
 11 -1 0 0 0 0 0 0 5 5 0 0. 9.
 -11 -1 0 0 0 0 0 0 -5 5 0 0. 9.
 15 1 1 2 0 0 -0.801172 3.58609 2.88797 5 1.7768 0. -1
 -15 1 1 2 0 0 0.801172 -3.58609 -2.88797 5 1.7768 0. 1
</event>
<event>
 4 80 1 -1 -1 -1
 11 -1 0 0 0 0 0 0 5 5 0 0. 9.
 -11 -1 0 0 0 0 0 0 -4.64168 4.64168 0 0. 9.
 15 1 1 2 0 0 -1.6948 3.53643 2.34214 4.90123 1.7768 0. -1
 -15 1 1 2 0 0 1.6948 -3.53643 -1.98382 4.74046 1.7768 0. 1
</event>
<event>
 4 80 1 -1 -1 -1
 11 -1 0 0 0 0 0 0 5 5 0 0. 9.
 -11 -1 0 0 0 0 0 0 -5 5 0 0. 9.
 15 1 1 2 0 0 -3.06688 -0.0869538 -3.52547 5 1.7768 0. 1
 -15 1 1 2 0 0 3.06688 0.0869538 3.52547 5 1.7768 0. -1
</event>
<event>
 4 80 1 -1 -1 -1
 11 -1 0 0 0 0 0 0 4.99997 4.99997 0 0. 9.
 -11 -1 0 0 0 0 0 0 -5 5 0 0. 9.
 15 1 1 2 0 0 4.33557 -1.51107 -0.872748 4.99999 1.7768 0. 1
 -15 1 1 2 0 0 -4.33557 1.51107 0.872723 4.99999 1.7768 0. -1
</event>
<event>
 4 80 1 -1 -1 -1
 11 -1 0 0 0 0 0 0 4.48896 4.48896 0 0. 9.
 -11 -1 0 0 0 0 0 0 -4.99838 4.99838 0 0. 9.
 15 1 1 2 0 0 0.679273 -3.92961 1.58547 4.64486 1.7768 0. -1
 -15 1 1 2 0 0 -0.679273 3.92961 -2.0949 4.84248 1.7768 0. 1
</event>
<event>
 4 80 1 -1 -1 -1
 11 -1 0 0 0 0 0 0 2.60766 2.60766 0 0. 9.
 -11 -1 0 0 0 0 0 0 -5 5 0 0. 9.
 15 1 1 2 0 0 -0.771302 0.305993 1.9977 2.79948 1.7768 0. 1
 -15 1 1 2 0 0 0.771302 -0.305993 -4.39003 4.80819 1.7768 0. -1
</event>
<event>
 4 80 1 -1 -1 -1
 11 -1 0 0 0 0 0 0 4.99997 4.99997 0 0. 9.
 -11 -1 0 0 0 0 0 0 -5 5 0 0. 9.
 15 1 1 2 0 0 1.05933 4.47632 -0.82615 4.99999 1.7768 0. 1
 -15 1 1 2 0 0 -1.05933 -4.47632 0.826124 4.99999 1.7768 0. -1
</event>
<event>
 4 80 1 -1 -1 -1
 11 -1 0 0 0 0 0 0 4.99997 4.99997 0 0. 9.
 -11 -1 0 0 0 0 0 0 -5 5 0 0. 9.
 15 1 1 2 0 0 0.661126 2.79107 -3.68986 4.99999 1.7768 0. -1
 -15 1 1 2 0 0 -0.661126 -2.79107 3.68984 4.99998 1.7768 0. 1
</event>
<event>
 4 80 1 -1 -1 -1
 11 -1 0 0 0 0 0 0 5 5 0 0. 9.
 -11 -1 0 0 0 0 0 0 -4.99983 4.99983 0 0. 9.
 15 1 1 2 0 0 4.27012 -1.74934 -0.739732 4.99991 1.7768 0. -1
 -15 1 1 2 0 0 -4.27012 1.74934 0.739897 4.99993 1.7768 0. 1
</event>
<event>
 4 80 1 -1 -1 -1
 11 -1 0 0 0 0 0 0 5 5 0 0. 9.
 -11 -1 0 0 0 0 0 0 -4.37905 4.37905 0 0. 9.
 15 1 1 2 0 0 2.60255 3.1646 -1.08887 4.59688 1.7768 0. 1
 -15 1 1 2 0 0 -2.60255 -3.1646 1.70983 4.78217 1.7768 0. -1
</event>
<event>
 4 80 1 -1 -1 -1
 11 -1 0 0 0 0 0 0 4.69068 4.69068 0 0. 9.
 -11 -1 0 0 0 0 0 0 -4.99759 4.99759 0 0. 9.
 15 1 1 2 0 0 -1.31622 0.0610331 -4.46238 4.98064 1.7768 0. -1
 -15 1 1 2 0 0 1.31622 -0.0610331 4.15547 4.70764 1.7768 0. 1
</event>
<event>
 4 80 1 -1 -1 -1
 11 -1 0 0 0 0 0 0 4.04043 4.04043 0 0. 9.
 -11 -1 0 0 0 0 0 0 -4.99734 4.99734 0 0. 9.
 15 1 1 2 0 0 1.93775 -3.51722 0.479803 4.41743 1.7768 0. -1
 -15 1 1 2 0 0 -1.93775 3.51722 -1.43671 4.62035 1.7768 0. 1
</event>
<event>
 4 80 1 -1 -1 -1
 11 -1 0 0 0 0 0 0 4.99823 4.99823 0 0. 9.
 -11 -1 0 0 0 0 0 0 -4.99945 4.99945 0 0. 9.
 15 1 1 2 0 0 -2.54225 -3.72304 -1.22805 4.99899 1.7768 0. 1
 -15 1 1 2 0 0 2.54225 3.72304 1.22683 4.99869 1.7768 0. -1
</event>
<event>
 4 80 1 -1 -1 -1
 11 -1 0 0 0 0 0 0 5 5 0 0. 9.
 -11 -1 0 0 0 0 0 0 -4.99041 4.99041 0 0. 9.
 15 1 1 2 0 0 -0.778087 2.14282 4.07877 4.99912 1.7768 0. 1
 -15 1 1 2 0 0 0.778087 -2.14282 -4.06917 4.99129 1.7768 0. -1
</event>
<event>
 4 80 1 -1 -1 -1
 11 -1 0 0 0 0 0 0 5 5 0 0. 9.
 -11 -1 0 0 0 0 0 0 -5 5 0 0. 9.
 15 1 1 2 0 0 -1.86796 0.0257644 4.28396 5 1.7768 0. -1
 -15 1 1 2 0 0 1.86796 -0.0257644 -4.28396 5 1.7768 0. 1
</event>
<event>
 4 80 1 -1 -1 -1
 11 -1 0 0 0 0 0 0 3.96846 3.96846 0 0. 9.
 -11 -1 0 0 0 0 0 0 -4.12663 4.12663 0 0. 9.
 15 1 1 2 0 0 -0.0638516 -3.54198 -0.897111 4.06353 1.7768 0. 1
 -15 1 1 2 0 0 0.0638516 3.54198 0.738941 4.03156 1.7768 0. -1
</event>
<event>
 4 80 1 -1 -1 -1
 11 -1 0 0 0 0 0 0 4.98319 4.98319 0 0. 9.
 -11 -1 0 0 0 0 0 0 -5 5 0 0. 9.
 15 1 1 2 0 0 1.89464 2.96029 3.05839 4.98643 1.7768 0. -1
 -15 1 1 2 0 0 -1.89464 -2.96029 -3.0752 4.99676 1.7768 0. 1
</event>
<event>
 4 80 1 -1 -1 -1
 11 -1 0 0 0 0 0 0 4.99976 4.99976 0 0. 9.
 -11 -1 0 0 0 0 0 0 -5 5 0 0. 9.
 15 1 1 2 0 0 -4.10923 0.818929 -2.07007 4.99993 1.7768 0. -1
 -15 1 1 2 0 0 4.10923 -0.818929 2.06983 4.99983 1.7768 0. 1
</event>
<event>
 4 80 1 -1 -1 -1
 11 -1 0 0 0 0 0 0 5 5 0 0. 9.
 -11 -1 0 0 0 0 0 0 -4.99941 4.99941 0 0. 9.
 15 1 1 2 0 0 4.55798 -1.00684 -0.224268 4.99969 1.7768 0. 1
 -15 1 1 2 0 0 -4.55798 1.00684 0.224856 4.99972 1.7768 0. -1
</event>
<event>
 4 80 1 -1 -1 -1
 11 -1 0 0 0 0 0 0 5 5 0 0. 9.
 -11 -1 0 0 0 0 0 0 -4.99999 4.99999 0 0. 9.
 15 1 1 2 0 0 -0.562223 -0.0512427 -4.63934 4.99999 1.7768 0. -1
 -15 1 1 2 0 0 0.562223 0.0512427 4.63935 5 1.7768 0. 1
</event>
<event>
 4 80 1 -1 -1 -1
 11 -1 0 0 0 0 0 0 4.21281 4.21281 0 0. 9.
 -11 -1 0 0 0 0 0 0 -4.99616 4.99616 0 0. 9.
 15 1 1 2 0 0 -1.96043 1.35785 -3.89768 4.90272 1.7768 0. 1
 -15 1 1 2 0 0 1.96043 -1.35785 3.11433 4.30625 1.7768 0. -1
</event>
<event>
 4 80 1 -1 -1 -1
 11 -1 0 0 0 0 0 0 5 5 0 0. 9.
 -11 -1 0 0 0 0 0 0 -2.9116 2.9116 0 0. 9.
 15 1 1 2 0 0 -2.34573 1.05627 3.31141 4.55427 1.7768 0. 1
 -15 1 1 2 0 0 2.34573 -1.05627 -1.22301 3.35733 1.7768 0. -1
</event>
<event>
 4 80 1 -1 -1 -1
 11 -1 0 0 0 0 0 0 5 5 0 0. 9.
 -11 -1 0 0 0 0 0 0 -4.40931 4.40931 0 0. 9.
 15 1 1 2 0 0 3.04036 2.31037 2.37483 4.8352 1.7768 0. -1
 -15 1 1 2 0 0 -3.04036 -2.31037 -1.78414 4.57411 1.7768 0. 1
</event>
<event>
 4 80 1 -1 -1 -1
 11 -1 0 0 0 0 0 0 5 5 0 0. 9.
 -11 -1 0 0 0 0 0 0 -4.99835 4.99835 0 0. 9.
 15 1 1 2 0 0 2.00186 3.7706 1.9006 4.99949 1.7768 0. 1
 -15 1 1 2 0 0 -2.00186 -3.7706 -1.89895 4.99886 1.7768 0. -1
</event>
<event>
 4 80 1 -1 -1 -1
 11 -1 0 0 0 0 0 0 4.98758 4.98758 0 0. 9.
 -11 -1 0 0 0 0 0 0 -5 5 0 0. 9.
 15 1 1 2 0 0 -0.940098 2.09361 -4.06985 4.99884 1.7768 0. -1
 -15 1 1 2 0 0 0.940098 -2.09361 4.05743 4.98873 1.7768 0. 1
</event>
<event>
 4 80 1 -1 -1 -1
 11 -1 0 0 0 0 0 0 5 5 0 0. 9.
 -11 -1 0 0 0 0 0 0 -4.99999 4.99999 0 0. 9.
 15 1 1 2 0 0 3.15827 -3.18153 -1.32114 4.99999 1.7768 0. 1
 -15 1 1 2 0 0 -3.15827 3.18153 1.32115 5 1.7768 0. -1
</event>
<event>
 4 80 1 -1 -1 -1
 11 -1 0 0 0 0 0 0 5 5 0 0. 9.
 -11 -1 0 0 0 0 0 0 -5 5 0 0. 9.
 15 1 1 2 0 0 -1.78017 0.377115 -4.30477 5 1.7768 0. 1
 -15 1 1 2 0 0 1.78017 -0.377115 4.30477 5 1.7768 0. -1
</event>
<event>
 4 80 1 -1 -1 -1
 11 -1 0 0 0 0 0 0 5 5 0 0. 9.
 -11 -1 0 0 0 0 0 0 -4.99856 4.99856 0 0. 9.
 15 1 1 2 0 0 3.13452 0.986223 3.32295 4.99976 1.7768 0. -1
 -15 1 1 2 0 0 -3.13452 -0.986223 -3.32152 4.9988 1.7768 0. 1
</event>
<event>
 4 80 1 -1 -1 -1
 11 -1 0 0 0 0 0 0 4.99993 4.99993 0 0. 9.
 -11 -1 0 0 0 0 0 0 -5 5 0 0. 9.
 15 1 1 2 0 0 2.73293 1.42677 -3.51249 4.99999 1.7768 0. -1
 -15 1 1 2 0 0 -2.73293 -1.42677 3.51242 4.99994 1.7768 0. 1
</event>
<event>
 4 80 1 -1 -1 -1
 11 -1 0 0 0 0 0 0 4.99999 4.99999 0 0. 9.
 -11 -1 0 0 0 0 0 0 -5 5 0 0. 9.
 15 1 1 2 0 0 3.92153 1.03439 2.32247 4.99999 1.7768 0. -1
 -15 1 1 2 0 0 -3.92153 -1.03439 -2.32248 5 1.7768 0. 1
</event>
<event>
 4 80 1 -1 -1 -1
 11 -1 0 0 0 0 0 0 4.99963 4.99963 0 0. 9.
 -11 -1 0 0 0 0 0 0 -4.99856 4.99856 0 0. 9.
 15 1 1 2 0 0 3.99913 0.985722 2.20701 4.99933 1.7768 0. 1
 -15 1 1 2 0 0 -3.99913 -0.985722 -2.20594 4.99886 1.7768 0. -1
</event>
<event>
 4 80 1 -1 -1 -1
 11 -1 0 0 0 0 0 0 5 5 0 0. 9.
 -11 -1 0 0 0 0 0 0 -5 5 0 0. 9.
 15 1 1 2 0 0 -1.33615 -3.95491 -2.10135 5 1.7768 0. -1
 -15 1 1 2 0 0 1.33615 3.95491 2.10135 5 1.7768 0. 1
</event>
<event>
 4 80 1 -1 -1 -1
 11 -1 0 0 0 0 0 0 4.99087 4.99087 0 0. 9.
 -11 -1 0 0 0 0 0 0 -4.99963 4.99963 0 0. 9.
 15 1 1 2 0 0 -4.31283 1.65382 0.673182 4.99465 1.7768 0. 1
 -15 1 1 2 0 0 4.31283 -1.65382 -0.681943 4.99584 1.7768 0. -1
</event>
<event>
 4 80 1 -1 -1 -1
 11 -1 0 0 0 0 0 0 5 5 0 0. 9.
 -11 -1 0 0 0 0 0 0 -4.99981 4.99981 0 0. 9.
 15 1 1 2 0 0 -4.0231 -2.37317 0.155114 4.99991 1.7768 0. -1
 -15 1 1 2 0 0 4.0231 2.37317 -0.154921 4.9999 1.7768 0. 1
</event>
<event>
 4 80 1 -1 -1 -1
 11 -1 0 0 0 0 0 0 4.99999 4.99999 0 0. 9.
 -11 -1 0 0 0 0 0 0 -4.99999 4.99999 0 0. 9.
 15 1 1 2 0 0 -2.3455 3.66022 1.71568 4.99999 1.7768 0. -1
 -15 1 1 2 0 0 2.3455 -3.66022 -1.71567 4.99999 1.7768 0. 1
</event>
<event>
 4 80 1 -1 -1 -1
 11 -1 0 0 0 0 0 0 2.72598 2.72598 0 0. 9.
 -11 -1 0 0 0 0 0 0 -4.99992 4.99992 0 0. 9.
 15 1 1 2 0 0 0.66218 0.694419 -4.37072 4.81473 1.7768 0. -1
 -15 1 1 2 0 0 -0.66218 -0.694419 2.09678 2.91117 1.7768 0. 1
</event>
<event>
 4 80 1 -1 -1 -1
 11 -1 0 0 0 0 0 0 4.2809 4.2809 0 0. 9.
 -11 -1 0 0 0 0 0 0 -4.99956 4.99956 0 0. 9.
 15 1 1 2 0 0 2.82129 0.551587 2.80945 4.39485 1.7768 0. 1
 -15 1 1 2 0 0 -2.82129 -0.551587 -3.52811 4.88562 1.7768 0. -1
</event>
<event>
 4 80 1 -1 -1 -1
 11 -1 0 0 0 0 0 0 4.9978 4.9978 0 0. 9.
 -11 -1 0 0 0 0 0 0 -5 5 0 0. 9.
 15 1 1 2 0 0 0.452702 4.62552 -0.481586 4.999 1.7768 0. -1
 -15 1 1 2 0 0 -0.452702 -4.62552 0.479383 4.99879 1.7768 0. 1
</event>
<event>
 4 80 1 -1 -1 -1
 11 -1 0 0 0 0 0 0 4.99787 4.99787 0 0. 9.
 -11 -1 0 0 0 0 0 0 -4.99999 4.99999 0 0. 9.
 15 1 1 2 0 0 2.36558 -0.707894 -3.96773 4.99977 1.7768 0. -1
 -15 1 1 2 0 0 -2.36558 0.707894 3.96561 4.99809 1.7768 0. 1
</event>
<event>
 4 80 1 -1 -1 -1
 11 -1 0 0 0 0 0 0 4.99999 4.99999 0 0. 9.
 -11 -1 0 0 0 0 0 0 -4.76874 4.76874 0 0. 9.
 15 1 1 2 0 0 -4.14251 1.35801 -1.18139 4.85366 1.7768 0. 1
 -15 1 1 2 0 0 4.14251 -1.35801 1.41263 4.91507 1.7768 0. -1
</event>
<event>
 4 80 1 -1 -1 -1
 11 -1 0 0 0 0 0 0 5 5 0 0. 9.
 -11 -1 0 0 0 0 0 0 -4.99999 4.99999 0 0. 9.
 15 1 1 2 0 0 3.53337 1.58891 -2.61396 4.99999 1.7768 0. -1
 -15 1 1 2 0 0 -3.53337 -1.58891 2.61397 5 1.7768 0. 1
</event>
<event>
 4 80 1 -1 -1 -1
 11 -1 0 0 0 0 0 0 5 5 0 0. 9.
 -11 -1 0 0 0 0 0 0 -5 5 0 0. 9.
 15 1 1 2 0 0 2.3956 -3.90896 -0.907421 5 1.7768 0. -1
 -15 1 1 2 0 0 -2.3956 3.90896 0.907422 5 1.7768 0. 1
</event>
<event>
 4 80 1 -1 -1 -1
 11 -1 0 0 0 0 0 0 5 5 0 0. 9.
 -11 -1 0 0 0 0 0 0 -4.97709 4.97709 0 0. 9.
 15 1 1 2 0 0 -1.38465 -1.82854 4.06941 4.99786 1.7768 0. 1
 -15 1 1 2 0 0 1.38465 1.82854 -4.0465 4.97923 1.7768 0. -1
</event>
<event>
 4 80 1 -1 -1 -1
 11 -1 0 0 0 0 0 0 5 5 0 0. 9.
 -11 -1 0 0 0 0 0 0 -4.99964 4.99964 0 0. 9.
 15 1 1 2 0 0 -2.21726 2.64218 -3.15308 4.9997 1.7768 0. -1
 -15 1 1 2 0 0 2.21726 -2.64218 3.15345 4.99993 1.7768 0. 1
</event>
<event>
 4 80 1 -1 -1 -1
 11 -1 0 0 0 0 0 0 0.904 0.904 0 0. 9.
 -11 -1 0 0 0 0 0 0 -4.99876 4.99876 0 0. 9.
 15 1 1 2 0 0 -0.828728 0.186001 -0.936876 2.18102 1.7768 0. -1
 -15 1 1 2 0 0 0.828728 -0.186001 -3.15788 3.72174 1.7768 0. 1
</event>
<event>
 4 80 1 -1 -1 -1
 11 -1 0 0 0 0 0 0 4.99969 4.99969 0 0. 9.
 -11 -1 0 0 0 0 0 0 -4.99388 4.99388 0 0. 9.
 15 1 1 2 0 0 -2.48619 -0.602433 3.91009 4.99906 1.7768 0. -1
 -15 1 1 2 0 0 2.48619 0.602433 -3.90427 4.99451 1.7768 0. 1
</event>
<event>
 4 80 1 -1 -1 -1
 11 -1 0 0 0 0 0 0 5 5 0 0. 9.
 -11 -1 0 0 0 0 0 0 -4.77664 4.77664 0 0. 9.
 15 1 1 2 0 0 -1.68566 4.17761 -0.545432 4.87331 1.7768 0. 1
 -15 1 1 2 0 0 1.68566 -4.17761 0.768794 4.90333 1.7768 0. -1
</event>
<event>
 4 80 1 -1 -1 -1
 11 -1 0 0 0 0 0 0 5 5 0 0. 9.
 -11 -1 0 0 0 0 0 0 -5 5 0 0. 9.
 15 1 1 2 0 0 1.18935 4.20427 1.65885 5 1.7768 0. -1
 -15 1 1 2 0 0 -1.18935 -4.20427 -1.65885 5 1.7768 0. 1
</event>
<event>
 4 80 1 -1 -1 -1
 11 -1 0 0 0 0 0 0 5 5 0 0. 9.
 -11 -1 0 0 0 0 0 0 -5 5 0 0. 9.
 15 1 1 2 0 0 -1.66358 0.404351 4.34871 5 1.7768 0. -1
 -15 1 1 2 0 0 1.66358 -0.404351 -4.34871 5 1.7768 0. 1
</event>
<event>
 4 80 1 -1 -1 -1
 11 -1 0 0 0 0 0 0 4.9203 4.9203 0 0. 9.
 -11 -1 0 0 0 0 0 0 -4.99893 4.99893 0 0. 9.
 15 1 1 2 0 0 2.96269 -1.46937 -3.28009 4.98531 1.7768 0. 1
 -15 1 1 2 0 0 -2.96269 1.46937 3.20146 4.93393 1.7768 0. -1
</event>
<event>
 4 80 1 -1 -1 -1
 11 -1 0 0 0 0 0 0 4.99993 4.99993 0 0. 9.
 -11 -1 0 0 0 0 0 0 -5 5 0 0. 9.
 15 1 1 2 0 0 -3.65901 1.40337 2.54636 4.99995 1.7768 0. 1
 -15 1 1 2 0 0 3.65901 -1.40337 -2.54643 4.99998 1.7768 0. -1
</event>
<event>
 4 80 1 -1 -1 -1
 11 -1 0 0 0 0 0 0 3.81377 3.81377 0 0. 9.
 -11 -1 0 0 0 0 0 0 -5 5 0 0. 9.
 15 1 1 2 0 0 -3.26998 1.76698 0.867969 4.21024 1.7768 0. -1
 -15 1 1 2 0 0 3.26998 -1.76698 -2.0542 4.60353 1.7768 0. 1
</event>
<event>
 4 80 1 -1 -1 -1
 11 -1 0 0 0 0 0 0 5 5 0 0. 9.
 -11 -1 0 0 0 0 0 0 -4.99956 4.99956 0 0. 9.
 15 1 1 2 0 0 1.88724 -2.4121 3.53012 4.99994 1.7768 0. -1
 -15 1 1 2 0 0 -1.88724 2.4121 -3.52968 4.99963 1.7768 0. 1
</event>
<event>
 4 80 1 -1 -1 -1
 11 -1 0 0 0 0 0 0 5 5 0 0. 9.
 -11 -1 0 0 0 0 0 0 -4.99951 4.99951 0 0. 9.
 15 1 1 2 0 0 -2.53339 2.08889 -3.32516 4.99959 1.7768 0. 1
 -15 1 1 2 0 0 2.53339 -2.08889 3.32565 4.99992 1.7768 0. -1
</event>
<event>
 4 80 1 -1 -1 -1
 11 -1 0 0 0 0 0 0 4.97218 4.97218 0 0. 9.
 -11 -1 0 0 0 0 0 0 -5 5 0 0. 9.
 15 1 1 2 0 0 -0.022594 -1.21179 -4.51218 4.99864 1.7768 0. -1
 -15 1 1 2 0 0 0.022594 1.21179 4.48435 4.97354 1.7768 0. 1
</event>
<event>
 4 80 1 -1 -1 -1
 11 -1 0 0 0 0 0 0 5 5 0 0. 9.
 -11 -1 0 0 0 0 0 0 -5 5 0 0. 9.
 15 1 1 2 0 0 2.55826 -1.63817 -3.55162 5 1.7768 0. -1
 -15 1 1 2 0 0 -2.55826 1.63817 3.55162 5 1.7768 0. 1
</event>
<event>
 4 80 1 -1 -1 -1
 11 -1 0 0 0 0 0 0 3.57831 3.57831 0 0. 9.
 -11 -1 0 0 0 0 0 0 -4.98764 4.98764 0 0. 9.
 15 1 1 2 0 0 -0.0353598 -3.6341 0.529375 4.07994 1.7768 0. -1
 -15 1 1 2 0 0 0.0353598 3.6341 -1.93871 4.486 1.7768 0. 1
</event>
<event>
 4 80 1 -1 -1 -1
 11 -1 0 0 0 0 0 0 5 5 0 0. 9.
 -11 -1 0 0 0 0 0 0 -4.93088 4.93088 0 0. 9.
 15 1 1 2 0 0 -1.21747 2.72777 -3.51146 4.94076 1.7768 0. -1
 -15 1 1 2 0 0 1.21747 -2.72777 3.58059 4.99012 1.7768 0. 1
</event>
<event>
 4 80 1 -1 -1 -1
 11 -1 0 0 0 0 0 0 4.89199 4.89199 0 0. 9.
 -11 -1 0 0 0 0 0 0 -5 5 0 0. 9.
 15 1 1 2 0 0 -1.26422 3.58745 2.56038 4.91745 1.7768 0. -1
 -15 1 1 2 0 0 1.26422 -3.58745 -2.66839 4.97454 1.7768 0. 1
</event>
<event>
 4 80 1 -1 -1 -1
 11 -1 0 0 0 0 0 0 5 5 0 0. 9.
 -11 -1 0 0 0 0 0 0 -5 5 0 0. 9.
 15 1 1 2 0 0 -1.46234 -2.40908 3.72829 5 1.7768 0. 1
 -15 1 1 2 0 0 1.46234 2.40908 -3.72829 5 1.7768 0. -1
</event>
<event>
 4 80 1 -1 -1 -1
 11 -1 0 0 0 0 0 0 4.79621 4.79621 0 0. 9.
 -11 -1 0 0 0 0 0 0 -5 5 0 0. 9.
 15 1 1 2 0 0 -0.787566 3.60202 -2.79107 4.95405 1.7768 0. 1
 -15 1 1 2 0 0 0.787566 -3.60202 2.58729 4.84216 1.7768 0. -1
</event>
<event>
 4 80 1 -1 -1 -1
 11 -1 0 0 0 0 0 0 4.43192 4.43192 0 0. 9.
 -11 -1 0 0 0 0 0 0 -5 5 0 0. 9.
 15 1 1 2 0 0 1.21305 0.182481 -4.4746 4.96836 1.7768 0. 1
 -15 1 1 2 0 0 -1.21305 -0.182481 3.90651 4.46356 1.7768 0. -1
</event>
<event>
 4 80 1 -1 -1 -1
 11 -1 0 0 0 0 0 0 5 5 0 0. 9.
 -11 -1 0 0 0 0 0 0 -5 5 0 0. 9.
 15 1 1 2 0 0 -3.79741 -2.5294 1.01199 5 1.7768 0. -1
 -15 1 1 2 0 0 3.79741 2.5294 -1.01199 5 1.7768 0. 1
</event>
<event>
 4 80 1 -1 -1 -1
 11 -1 0 0 0 0 0 0 5 5 0 0. 9.
 -11 -1 0 0 0 0 0 0 -4.99937 4.99937 0 0. 9.
 15 1 1 2 0 0 -0.861345 -0.508397 -4.56463 4.9994 1.7768 0. 1
 -15 1 1 2 0 0 0.861345 0.508397 4.56526 4.99997 1.7768 0. -1
</event>
<event>
 4 80 1 -1 -1 -1
 11 -1 0 0 0 0 0 0 5 5 0 0. 9.
 -11 -1 0 0 0 0 0 0 -5 5 0 0. 9.
 15 1 1 2 0 0 0.291962 2.81264 -3.72103 5 1.7768 0. 1
 -15 1 1 2 0 0 -0.291962 -2.81264 3.72103 5 1.7768 0. -1
</event>
<event>
 4 80 1 -1 -1 -1
 11 -1 0 0 0 0 0 0 4.9995 4.9995 0 0. 9.
 -11 -1 0 0 0 0 0 0 -5 5 0 0. 9.
 15 1 1 2 0 0 -0.147549 -0.0671236 -4.67074 4.99998 1.7768 0. 1
 -15 1 1 2 0 0 0.147549 0.0671236 4.67024 4.99952 1.7768 0. -1
</event>
<event>
 4 80 1 -1 -1 -1
 11 -1 0 0 0 0 0 0 5 5 0 0. 9.
 -11 -1 0 0 0 0 0 0 -5 5 0 0. 9.
 15 1 1 2 0 0 1.14035 0.843161 4.45319 5 1.7768 0. 1
 -15 1 1 2 0 0 -1.14035 -0.843161 -4.45319 5 1.7768 0. -1
</event>
<event>
 4 80 1 -1 -1 -1
 11 -1 0 0 0 0 0 0 4.9956 4.9956 0 0. 9.
 -11 -1 0 0 0 0 0 0 -5 5 0 0. 9.
 15 1 1 2 0 0 -4.09824 -0.803791 -2.09472 4.99872 1.7768 0. -1
 -15 1 1 2 0 0 4.09824 0.803791 2.09033 4.99688 1.7768 0. 1
</event>
<event>
 4 80 1 -1 -1 -1
 11 -1 0 0 0 0 0 0 5 5 0 0. 9.
 -11 -1 0 0 0 0 0 0 -5 5 0 0. 9.
 15 1 1 2 0 0 -3.74668 -2.7792 0.284026 5 1.7768 0. -1
 -15 1 1 2 0 0 3.74668 2.7792 -0.284026 5 1.7768 0. 1
</event>
<event>
 4 80 1 -1 -1 -1
 11 -1 0 0 0 0 0 0 5 5 0 0. 9.
 -11 -1 0 0 0 0 0 0 -3.53364 3.53364 0 0. 9.
 15 1 1 2 0 0 2.57168 2.77326 0.272494 4.18766 1.7768 0. -1
 -15 1 1 2 0 0 -2.57168 -2.77326 1.19387 4.34598 1.7768 0. 1
</event>
<event>
 4 80 1 -1 -1 -1
 11 -1 0 0 0 0 0 0 4.33299 4.33299 0 0. 9.
 -11 -1 0 0 0 0 0 0 -4.84114 4.84114 0 0. 9.
 15 1 1 2 0 0 0.265026 1.2335 -4.28856 4.81054 1.7768 0. 1
 -15 1 1 2 0 0 -0.265026 -1.2335 3.78041 4.3636 1.7768 0. -1
</event>
<event>
 4 80 1 -1 -1 -1
 11 -1 0 0 0 0 0 0 5 5 0 0. 9.
 -11 -1 0 0 0 0 0 0 -2.68066 2.68066 0 0. 9.
 15 1 1 2 0 0 0.996478 -3.04107 1.23029 3.86166 1.7768 0. -1
 -15 1 1 2 0 0 -0.996478 3.04107 1.08904 3.81901 1.7768 0. 1
</event>
<event>
 4 80 1 -1 -1 -1
 11 -1 0 0 0 0 0 0 5 5 0 0. 9.
 -11 -1 0 0 0 0 0 0 -4.99996 4.99996 0 0. 9.
 15 1 1 2 0 0 2.12716 -3.87828 1.50872 4.99999 1.7768 0. 1
 -15 1 1 2 0 0 -2.12716 3.87828 -1.50869 4.99998 1.7768 0. -1
</event>
<event>
 4 80 1 -1 -1 -1
 11 -1 0 0 0 0 0 0 5 5 0 0. 9.
 -11 -1 0 0 0 0 0 0 -0.851462 0.851462 0 0. 9.
 15 1 1 2 0 0 -0.349105 0.947665 1.67411 2.64203 1.7768 0. 1
 -15 1 1 2 0 0 0.349105 -0.947665 2.47443 3.20943 1.7768 0. -1
</event>
<event>
 4 80 1 -1 -1 -1
 11 -1 0 0 0 0 0 0 5 5 0 0. 9.
 -11 -1 0 0 0 0 0 0 -4.99949 4.99949 0 0. 9.
 15 1 1 2 0 0 -1.72795 0.118692 4.34074 4.99997 1.7768 0. 1
 -15 1 1 2 0 0 1.72795 -0.118692 -4.34023 4.99952 1.7768 0. -1
</event>
<event>
 4 80 1 -1 -1 -1
 11 -1 0 0 0 0 0 0 5 5 0 0. 9.
 -11 -1 0 0 0 0 0 0 -4.99999 4.99999 0 0. 9.
 15 1 1 2 0 0 0.607359 4.60756 0.493668 5 1.7768 0. 1
 -15 1 1 2 0 0 -0.607359 -4.60756 -0.493662 5 1.7768 0. -1
</event>
<event>
 4 80 1 -1 -1 -1
 11 -1 0 0 0 0 0 0 5 5 0 0. 9.
 -11 -1 0 0 0 0 0 0 -5 5 0 0. 9.
 15 1 1 2 0 0 2.95705 -1.72384 -3.18221 5 1.7768 0. 1
 -15 1 1 2 0 0 -2.95705 1.72384 3.18221 5 1.7768 0. -1
</event>
<event>
 4 80 1 -1 -1 -1
 11 -1 0 0 0 0 0 0 4.93564 4.93564 0 0. 9.
 -11 -1 0 0 0 0 0 0 -4.99999 4.99999 0 0. 9.
 15 1 1 2 0 0 -2.13262 0.647438 -4.10083 4.99417 1.7768 0. -1
 -15 1 1 2 0 0 2.13262 -0.647438 4.03647 4.94147 1.7768 0. 1
</event>
<event>
 4 80 1 -1 -1 -1
 11 -1 0 0 0 0 0 0 2.72581 2.72581 0 0. 9.
 -11 -1 0 0 0 0 0 0 -2.45159 2.45159 0 0. 9.
 15 1 1 2 0 0 -0.203309 0.699722 1.86983 2.68048 1.7768 0. -1
 -15 1 1 2 0 0 0.203309 -0.699722 -1.59561 2.49693 1.7768 0. 1
</event>
<event>
 4 80 1 -1 -1 -1
 11 -1 0 0 0 0 0 0 5 5 0 0. 9.
 -11 -1 0 0 0 0 0 0 -4.08545 4.08545 0 0. 9.
 15 1 1 2 0 0 1.22672 0.495019 4.41688 4.9413 1.7768 0. -1
 -15 1 1 2 0 0 -1.22672 -0.495019 -3.50234 4.14415 1.7768 0. 1
</event>
<event>
 4 80 1 -1 -1 -1
 11 -1 0 0 0 0 0 0 4.88588 4.88588 0 0. 9.
 -11 -1 0 0 0 0 0 0 -5 5 0 0. 9.
 15 1 1 2 0 0 3.09971 -1.38967 -3.17693 4.97896 1.7768 0. -1
 -15 1 1 2 0 0 -3.09971 1.38967 3.06282 4.90693 1.7768 0. 1
</event>
<event>
 4 80 1 -1 -1 -1
 11 -1 0 0 0 0 0 0 4.99859 4.99859 0 0. 9.
 -11 -1 0 0 0 0 0 0 -5 5 0 0. 9.
 15 1 1 2 0 0 -0.98239 -4.51273 -0.711614 4.9994 1.7768 0. -1
 -15 1 1 2 0 0 0.98239 4.51273 0.710206 4.9992 1.7768 0. 1
</event>
<event>
 4 80 1 -1 -1 -1
 11 -1 0 0 0 0 0 0 4.88891 4.88891 0 0. 9.
 -11 -1 0 0 0 0 0 0 -5 5 0 0. 9.
 15 1 1 2 0 0 -1.64393 -2.32483 3.57504 4.90367 1.7768 0. 1
 -15 1 1 2 0 0 1.64393 2.32483 -3.68613 4.98524 1.7768 0. -1
</event>
<event>
 4 80 1 -1 -1 -1
 11 -1 0 0 0 0 0 0 5 5 0 0. 9.
 -11 -1 0 0 0 0 0 0 -5 5 0 0. 9.
 15 1 1 2 0 0 0.490214 0.972011 4.54501 5 1.7768 0. 1
 -15 1 1 2 0 0 -0.490214 -0.972011 -4.54501 5 1.7768 0. -1
</event>
<event>
 4 80 1 -1 -1 -1
 11 -1 0 0 0 0 0 0 4.95992 4.95992 0 0. 9.
 -11 -1 0 0 0 0 0 0 -4.70257 4.70257 0 0. 9.
 15 1 1 2 0 0 4.21255 -1.42792 0.747014 4.84771 1.7768 0. 1
 -15 1 1 2 0 0 -4.21255 1.42792 -0.489666 4.81478 1.7768 0. -1
</event>
<event>
 4 80 1 -1 -1 -1
 11 -1 0 0 0 0 0 0 4.96827 4.96827 0 0. 9.
 -11 -1 0 0 0 0 0 0 -4.99999 4.99999 0 0. 9.
 15 1 1 2 0 0 -4.02566 -2.14377 0.923229 4.98114 1.7768 0. -1
 -15 1 1 2 0 0 4.02566 2.14377 -0.954954 4.98712 1.7768 0. 1
</event>
<event>
 4 80 1 -1 -1 -1
 11 -1 0 0 0 0 0 0 4.96538 4.96538 0 0. 9.
 -11 -1 0 0 0 0 0 0 -5 5 0 0. 9.
 15 1 1 2 0 0 1.43627 4.42397 -0.203938 4.98334 1.7768 0. 1
 -15 1 1 2 0 0 -1.43627 -4.42397 0.169318 4.98204 1.7768 0. -1
</event>
<event>
 4 80 1 -1 -1 -1
 11 -1 0 0 0 0 0 0 5 5 0 0. 9.
 -11 -1 0 0 0 0 0 0 -4.99947 4.99947 0 0. 9.
 15 1 1 2 0 0 -3.50516 2.81238 -1.28191 4.99967 1.7768 0. 1
 -15 1 1 2 0 0 3.50516 -2.81238 1.28243 4.9998 1.7768 0. -1
</event>
<event>
 4 80 1 -1 -1 -1
 11 -1 0 0 0 0 0 0 4.76182 4.76182 0 0. 9.
 -11 -1 0 0 0 0 0 0 -4.99819 4.99819 0 0. 9.
 15 1 1 2 0 0 2.54205 3.26204 1.76381 4.83443 1.7768 0. -1
 -15 1 1 2 0 0 -2.54205 -3.26204 -2.00019 4.92559 1.7768 0. 1
</event>
<event>
 4 80 1 -1 -1 -1
 11 -1 0 0 0 0 0 0 5 5 0 0. 9.
 -11 -1 0 0 0 0 0 0 -5 5 0 0. 9.
 15 1 1 2 0 0 -0.800469 -3.95821 2.35247 5 1.7768 0. 1
 -15 1 1 2 0 0 0.800469 3.95821 -2.35247 5 1.7768 0. -1
</event>
<event>
 4 80 1 -1 -1 -1
 11 -1 0 0 0 0 0 0 4.99955 4.99955 0 0. 9.
 -11 -1 0 0 0 0 0 0 -5 5 0 0. 9.
 15 1 1 2 0 0 2.13141 -2.81559 3.06075 4.99963 1.7768 0. 1
 -15 1 1 2 0 0 -2.13141 2.81559 -3.0612 4.99991 1.7768 0. -1
</event>
<event>
 4 80 1 -1 -1 -1
 11 -1 0 0 0 0 0 0 5 5 0 0. 9.
 -11 -1 0 0 0 0 0 0 -5 5 0 0. 9.
 15 1 1 2 0 0 -0.0816361 -3.58457 2.99775 5 1.7768 0. 1
 -15 1 1 2 0 0 0.0816361 3.58457 -2.99775 5 1.7768 0. -1
</event>
<event>
 4 80 1 -1 -1 -1
 11 -1 0 0 0 0 0 0 5 5 0 0. 9.
 -11 -1 0 0 0 0 0 0 -5 5 0 0. 9.
 15 1 1 2 0 0 3.10609 3.48281 0.253923 5 1.7768 0. 1
 -15 1 1 2 0 0 -3.10609 -3.48281 -0.253923 5 1.7768 0. -1
</event>
<event>
 4 80 1 -1 -1 -1
 11 -1 0 0 0 0 0 0 4.92184 4.92184 0 0. 9.
 -11 -1 0 0 0 0 0 0 -5 5 0 0. 9.
 15 1 1 2 0 0 4.45314 0.256226 1.2081 4.9511 1.7768 0. 1
 -15 1 1 2 0 0 -4.45314 -0.256226 -1.28625 4.97075 1.7768 0. -1
</event>
<event>
 4 80 1 -1 -1 -1
 11 -1 0 0 0 0 0 0 4.99999 4.99999 0 0. 9.
 -11 -1 0 0 0 0 0 0 -4.98877 4.98877 0 0. 9.
 15 1 1 2 0 0 -1.50303 1.17851 4.2645 4.99917 1.7768 0. -1
 -15 1 1 2 0 0 1.50303 -1.17851 -4.25328 4.9896 1.7768 0. 1
</event>
<event>
 4 80 1 -1 -1 -1
 11 -1 0 0 0 0 0 0 1.12634 1.12634 0 0. 9.
 -11 -1 0 0 0 0 0 0 -5 5 0 0. 9.
 15 1 1 2 0 0 0.985993 0.190865 -3.49935 4.05114 1.7768 0. 1
 -15 1 1 2 0 0 -0.985993 -0.190865 -0.374309 2.0752 1.7768 0. -1
</event>
<event>
 4 80 1 -1 -1 -1
 11 -1 0 0 0 0 0 0 5 5 0 0. 9.
 -11 -1 0 0 0 0 0 0 -5 5 0 0. 9.
 15 1 1 2 0 0 -0.709661 0.754043 4.55742 5 1.7768 0. 1
 -15 1 1 2 0 0 0.709661 -0.754043 -4.55742 5 1.7768 0. -1
</event>
<event>
 4 80 1 -1 -1 -1
 11 -1 0 0 0 0 0 0 5 5 0 0. 9.
 -11 -1 0 0 0 0 0 0 -4.98965 4.98965 0 0. 9.
 15 1 1 2 0 0 2.24499 -0.73277 4.03178 4.99899 1.7768 0. 1
 -15 1 1 2 0 0 -2.24499 0.73277 -4.02144 4.99065 1.7768 0. -1
</event>
<event>
 4 80 1 -1 -1 -1
 11 -1 0 0 0 0 0 0 5 5 0 0. 9.
 -11 -1 0 0 0 0 0 0 -5 5 0 0. 9.
 15 1 1 2 0 0 3.46806 3.1326 -0.0399888 5 1.7768 0. 1
 -15 1 1 2 0 0 -3.46806 -3.1326 0.0399888 5 1.7768 0. -1
</event>
<event>
 4 80 1 -1 -1 -1
 11 -1 0 0 0 0 0 0 5 5 0 0. 9.
 -11 -1 0 0 0 0 0 0 -4.93445 4.93445 0 0. 9.
 15 1 1 2 0 0 1.05029 3.87147 2.36158 4.98259 1.7768 0. 1
 -15 1 1 2 0 0 -1.05029 -3.87147 -2.29603 4.95186 1.7768 0. -1
</event>
<event>
 4 80 1 -1 -1 -1
 11 -1 0 0 0 0 0 0 5 5 0 0. 9.
 -11 -1 0 0 0 0 0 0 -5 5 0 0. 9.
 15 1 1 2 0 0 -0.978902 1.03927 -4.45016 5 1.7768 0. 1
 -15 1 1 2 0 0 0.978902 -1.03927 4.45016 5 1.7768 0. -1
</event>
<event>
 4 80 1 -1 -1 -1
 11 -1 0 0 0 0 0 0 5 5 0 0. 9.
 -11 -1 0 0 0 0 0 0 -5 5 0 0. 9.
 15 1 1 2 0 0 -3.94676 -2.32953 -0.915799 5 1.7768 0. 1
 -15 1 1 2 0 0 3.94676 2.32953 0.915799 5 1.7768 0. -1
</event>
<event>
 4 80 1 -1 -1 -1
 11 -1 0 0 0 0 0 0 5 5 0 0. 9.
 -11 -1 0 0 0 0 0 0 -4.99294 4.99294 0 0. 9.
 15 1 1 2 0 0 1.1239 0.420289 -4.50947 4.99328 1.7768 0. 1
 -15 1 1 2 0 0 -1.1239 -0.420289 4.51653 4.99966 1.7768 0. -1
</event>
<event>
 4 80 1 -1 -1 -1
 11 -1 0 0 0 0 0 0 5 5 0 0. 9.
 -11 -1 0 0 0 0 0 0 -4.99993 4.99993 0 0. 9.
 15 1 1 2 0 0 -2.71495 3.80063 -0.161993 4.99997 1.7768 0. -1
 -15 1 1 2 0 0 2.71495 -3.80063 0.162059 4.99997 1.7768 0. 1
</event>
<event>
 4 80 1 -1 -1 -1
 11 -1 0 0 0 0 0 0 0.97478 0.97478 0 0. 9.
 -11 -1 0 0 0 0 0 0 -5 5 0 0. 9.
 15 1 1 2 0 0 -0.512902 -0.933305 -3.04497 3.68289 1.7768 0. -1
 -15 1 1 2 0 0 0.512902 0.933305 -0.980251 2.29189 1.7768 0. 1
</event>
<event>
 4 80 1 -1 -1 -1
 11 -1 0 0 0 0 0 0 4.98465 4.98465 0 0. 9.
 -11 -1 0 0 0 0 0 0 -5 5 0 0. 9.
 15 1 1 2 0 0 2.28963 2.61312 3.10596 4.98754 1.7768 0. -1
 -15 1 1 2 0 0 -2.28963 -2.61312 -3.12131 4.99711 1.7768 0. 1
</event>
<event>
 4 80 1 -1 -1 -1
 11 -1 0 0 0 0 0 0 5 5 0 0. 9.
 -11 -1 0 0 0 0 0 0 -5 5 0 0. 9.
 15 1 1 2 0 0 -3.00674 3.42021 -1.0507 5 1.7768 0. 1
 -15 1 1 2 0 0 3.00674 -3.42021 1.0507 5 1.7768 0. -1
</event>
<event>
 4 80 1 -1 -1 -1
 11 -1 0 0 0 0 0 0 5 5 0 0. 9.
 -11 -1 0 0 0 0 0 0 -5 5 0 0. 9.
 15 1 1 2 0 0 -2.0463 -3.21177 -2.70914 5 1.7768 0. -1
 -15 1 1 2 0 0 2.0463 3.21177 2.70914 5 1.7768 0. 1
</event>
<event>
 4 80 1 -1 -1 -1
 11 -1 0 0 0 0 0 0 5 5 0 0. 9.
 -11 -1 0 0 0 0 0 0 -5 5 0 0. 9.
 15 1 1 2 0 0 -3.643 -0.226976 -2.91879 5 1.7768 0. 1
 -15 1 1 2 0 0 3.643 0.226976 2.91879 5 1.7768 0. -1
</event>
<event>
 4 80 1 -1 -1 -1
 11 -1 0 0 0 0 0 0 5 5 0 0. 9.
 -11 -1 0 0 0 0 0 0 -0.725808 0.725808 0 0. 9.
 15 1 1 2 0 0 -0.595229 -0.157521 2.59343 3.20355 1.7768 0. -1
 -15 1 1 2 0 0 0.595229 0.157521 1.68076 2.52226 1.7768 0. 1
</event>
<event>
 4 80 1 -1 -1 -1
 11 -1 0 0 0 0 0 0 4.99993 4.99993 0 0. 9.
 -11 -1 0 0 0 0 0 0 -5 5 0 0. 9.
 15 1 1 2 0 0 3.83291 0.844415 -2.53729 4.99998 1.7768 0. 1
 -15 1 1 2 0 0 -3.83291 -0.844415 2.53722 4.99995 1.7768 0. -1
</event>
<event>
 4 80 1 -1 -1 -1
 11 -1 0 0 0 0 0 0 2.3037 2.3037 0 0. 9.
 -11 -1 0 0 0 0 0 0 -5 5 0 0. 9.
 15 1 1 2 0 0 -1.6726 -2.21175 -2.22977 3.97732 1.7768 0. 1
 -15 1 1 2 0 0 1.6726 2.21175 -0.466533 3.32638 1.7768 0. -1
</event>
<event>
 4 80 1 -1 -1 -1
 11 -1 0 0 0 0 0 0 5 5 0 0. 9.
 -11 -1 0 0 0 0 0 0 -4.99867 4.99867 0 0. 9.
 15 1 1 2 0 0 -4.03532 1.67978 -1.65164 4.99911 1.7768 0. -1
 -15 1 1 2 0 0 4.03532 -1.67978 1.65298 4.99955 1.7768 0. 1
</event>
<event>
 4 80 1 -1 -1 -1
 11 -1 0 0 0 0 0 0 5 5 0 0. 9.
 -11 -1 0 0 0 0 0 0 -5 5 0 0. 9.
 15 1 1 2 0 0 0.324148 -0.032144 -4.66221 5 1.7768 0. 1
 -15 1 1 2 0 0 -0.324148 0.032144 4.66221 5 1.7768 0. -1
</event>
<event>
 4 80 1 -1 -1 -1
 11 -1 0 0 0 0 0 0 4.99999 4.99999 0 0. 9.
 -11 -1 0 0 0 0 0 0 -5 5 0 0. 9.
 15 1 1 2 0 0 0.0072115 -1.21539 -4.51276 5 1.7768 0. 1
 -15 1 1 2 0 0 -0.0072115 1.21539 4.51276 4.99999 1.7768 0. -1
</event>
<event>
 4 80 1 -1 -1 -1
 11 -1 0 0 0 0 0 0 5 5 0 0. 9.
 -11 -1 0 0 0 0 0 0 -4.66913 4.66913 0 0. 9.
 15 1 1 2 0 0 0.432954 -1.35581 -4.09878 4.68865 1.7768 0. 1
 -15 1 1 2 0 0 -0.432954 1.35581 4.42965 4.98048 1.7768 0. -1
</event>
<event>
 4 80 1 -1 -1 -1
 11 -1 0 0 0 0 0 0 4.99998 4.99998 0 0. 9.
 -11 -1 0 0 0 0 0 0 -5 5 0 0. 9.
 15 1 1 2 0 0 1.91799 -0.130224 4.25987 4.99999 1.7768 0. -1
 -15 1 1 2 0 0 -1.91799 0.130224 -4.25988 5 1.7768 0. 1
</event>
<event>
 4 80 1 -1 -1 -1
 11 -1 0 0 0 0 0 0 5 5 0 0. 9.
 -11 -1 0 0 0 0 0 0 -5 5 0 0. 9.
 15 1 1 2 0 0 -2.57089 -1.89449 3.41228 5 1.7768 0. -1
 -15 1 1 2 0 0 2.57089 1.89449 -3.41229 5 1.7768 0. 1
</event>
<event>
 4 80 1 -1 -1 -1
 11 -1 0 0 0 0 0 0 4.99984 4.99984 0 0. 9.
 -11 -1 0 0 0 0 0 0 -5 5 0 0. 9.
 15 1 1 2 0 0 -1.55577 -4.28391 -1.03407 4.99994 1.7768 0. -1
 -15 1 1 2 0 0 1.55577 4.28391 1.03391 4.9999 1.7768 0. 1
</event>
<event>
 4 80 1 -1 -1 -1
 11 -1 0 0 0 0 0 0 4.99999 4.99999 0 0. 9.
 -11 -1 0 0 0 0 0 0 -5 5 0 0. 9.
 15 1 1 2 0 0 -3.05621 -3.43692 0.830297 5 1.7768 0. -1
 -15 1 1 2 0 0 3.05621 3.43692 -0.830303 5 1.7768 0. 1
</event>
<event>
 4 80 1 -1 -1 -1
 11 -1 0 0 0 0 0 0 4.99983 4.99983 0 0. 9.
 -11 -1 0 0 0 0 0 0 -5 5 0 0. 9.
 15 1 1 2 0 0 4.29175 0.875418 1.62963 4.99989 1.7768 0. -1
 -15 1 1 2 0 0 -4.29175 -0.875418 -1.62979 4.99994 1.7768 0. 1
</event>
<event>
 4 80 1 -1 -1 -1
 11 -1 0 0 0 0 0 0 4.99826 4.99826 0 0. 9.
 -11 -1 0 0 0 0 0 0 -5 5 0 0. 9.
 15 1 1 2 0 0 -3.4139 -2.14006 2.36535 4.99872 1.7768 0. 1
 -15 1 1 2 0 0 3.4139 2.14006 -2.36709 4.99954 1.7768 0. -1
</event>
<event>
 4 80 1 -1 -1 -1
 11 -1 0 0 0 0 0 0 4.99995 4.99995 0 0. 9.
 -11 -1 0 0 0 0 0 0 -4.99984 4.99984 0 0. 9.
 15 1 1 2 0 0 -3.30116 1.78038 2.7882 4.99992 1.7768 0. -1
 -15 1 1 2 0 0 3.30116 -1.78038 -2.78809 4.99986 1.7768 0. 1
</event>
<event>
 4 80 1 -1 -1 -1
 11 -1 0 0 0 0 0 0 4.87063 4.87063 0 0. 9.
 -11 -1 0 0 0 0 0 0 -3.82699 3.82699 0 0. 9.
 15 1 1 2 0 0 2.51891 -0.91083 -2.38145 4.00044 1.7768 0. -1
 -15 1 1 2 0 0 -2.51891 0.91083 3.42509 4.69718 1.7768 0. 1
</event>
<event>
 4 80 1 -1 -1 -1
 11 -1 0 0 0 0 0 0 4.88366 4.88366 0 0. 9.
 -11 -1 0 0 0 0 0 0 -4.89837 4.89837 0 0. 9.
 15 1 1 2 0 0 4.13347 0.702379 -1.79212 4.8937 1.7768 0. 1
 -15 1 1 2 0 0 -4.13347 -0.702379 1.7774 4.88833 1.7768 0. -1
</event>
<event>
 4 80 1 -1 -1 -1
 11 -1 0 0 0 0 0 0 4.6926 4.6926 0 0. 9.
 -11 -1 0 0 0 0 0 0 -4.92447 4.92447 0 0. 9.
 15 1 1 2 0 0 0.448481 4.44021 -0.301139 4.813 1.7768 0. 1
 -15 1 1 2 0 0 -0.448481 -4.44021 0.0692757 4.80407 1.7768 0. -1
</event>
<event>
 4 80 1 -1 -1 -1
 11 -1 0 0 0 0 0 0 5 5 0 0. 9.
 -11 -1 0 0 0 0 0 0 -3.08944 3.08944 0 0. 9.
 15 1 1 2 0 0 -0.449983 -3.29865 -0.174824 3.77781 1.7768 0. 1
 -15 1 1 2 0 0 0.449983 3.29865 2.08538 4.31163 1.7768 0. -1
</event>
<event>
 4 80 1 -1 -1 -1
 11 -1 0 0 0 0 0 0 5 5 0 0. 9.
 -11 -1 0 0 0 0 0 0 -2.68857 2.68857 0 0. 9.
 15 1 1 2 0 0 -1.43102 1.57172 -1.36223 3.08731 1.7768 0. 1
 -15 1 1 2 0 0 1.43102 -1.57172 3.67366 4.60126 1.7768 0. -1
</event>
<event>
 4 80 1 -1 -1 -1
 11 -1 0 0 0 0 0 0 5 5 0 0. 9.
 -11 -1 0 0 0 0 0 0 -5 5 0 0. 9.
 15 1 1 2 0 0 -4.28012 0.283853 1.85533 5 1.7768 0. 1
 -15 1 1 2 0 0 4.28012 -0.283853 -1.85533 5 1.7768 0. -1
</event>
<event>
 4 80 1 -1 -1 -1
 11 -1 0 0 0 0 0 0 5 5 0 0. 9.
 -11 -1 0 0 0 0 0 0 -5 5 0 0. 9.
 15 1 1 2 0 0 1.60488 3.28372 2.9127 5 1.7768 0. 1
 -15 1 1 2 0 0 -1.60488 -3.28372 -2.9127 5 1.7768 0. -1
</event>
<event>
 4 80 1 -1 -1 -1
 11 -1 0 0 0 0 0 0 4.85921 4.85921 0 0. 9.
 -11 -1 0 0 0 0 0 0 -5 5 0 0. 9.
 15 1 1 2 0 0 -2.54569 -3.55504 -1.49164 4.9499 1.7768 0. 1
 -15 1 1 2 0 0 2.54569 3.55504 1.35085 4.90931 1.7768 0. -1
</event>
<event>
 4 80 1 -1 -1 -1
 11 -1 0 0 0 0 0 0 4.89006 4.89006 0 0. 9.
 -11 -1 0 0 0 0 0 0 -5 5 0 0. 9.
 15 1 1 2 0 0 -0.86432 4.20078 1.64778 4.9261 1.7768 0. -1
 -15 1 1 2 0 0 0.86432 -4.20078 -1.75771 4.96396 1.7768 0. 1
</event>
<event>
 4 80 1 -1 -1 -1
 11 -1 0 0 0 0 0 0 4.45972 4.45972 0 0. 9.
 -11 -1 0 0 0 0 0 0 -1.575 1.575 0 0. 9.
 15 1 1 2 0 0 1.91701 0.19618 0.997167 2.80454 1.7768 0. -1
 -15 1 1 2 0 0 -1.91701 -0.19618 1.88756 3.23017 1.7768 0. 1
</event>
<event>
 4 80 1 -1 -1 -1
 11 -1 0 0 0 0 0 0 4.99756 4.99756 0 0. 9.
 -11 -1 0 0 0 0 0 0 -5 5 0 0. 9.
 15 1 1 2 0 0 0.443746 3.6743 2.85056 4.99808 1.7768 0. -1
 -15 1 1 2 0 0 -0.443746 -3.6743 -2.853 4.99947 1.7768 0. 1
</event>
<event>
 4 80 1 -1 -1 -1
 11 -1 0 0 0 0 0 0 5 5 0 0. 9.
 -11 -1 0 0 0 0 0 0 -5 5 0 0. 9.
 15 1 1 2 0 0 0.99059 4.46698 0.952418 5 1.7768 0. -1
 -15 1 1 2 0 0 -0.99059 -4.46698 -0.952417 5 1.7768 0. 1
</event>
<event>
 4 80 1 -1 -1 -1
 11 -1 0 0 0 0 0 0 1.67663 1.67663 0 0. 9.
 -11 -1 0 0 0 0 0 0 -4.99249 4.99249 0 0. 9.
 15 1 1 2 0 0 2.17919 0.56126 -1.21313 3.11341 1.7768 0. 1
 -15 1 1 2 0 0 -2.17919 -0.56126 -2.10273 3.55571 1.7768 0. -1
</event>
<event>
 4 80 1 -1 -1 -1
 11 -1 0 0 0 0 0 0 4.99985 4.99985 0 0. 9.
 -11 -1 0 0 0 0 0 0 -5 5 0 0. 9.
 15 1 1 2 0 0 -2.29488 -2.16968 -3.445 4.99998 1.7768 0. 1
 -15 1 1 2 0 0 2.29488 2.16968 3.44485 4.99987 1.7768 0. -1
</event>
<event>
 4 80 1 -1 -1 -1
 11 -1 0 0 0 0 0 0 5 5 0 0. 9.
 -11 -1 0 0 0 0 0 0 -5 5 0 0. 9.
 15 1 1 2 0 0 -3.06501 0.561284 3.48324 5 1.7768 0. 1
 -15 1 1 2 0 0 3.06501 -0.561284 -3.48324 5 1.7768 0. -1
</event>
<event>
 4 80 1 -1 -1 -1
 11 -1 0 0 0 0 0 0 4.81903 4.81903 0 0. 9.
 -11 -1 0 0 0 0 0 0 -3.87105 3.87105 0 0. 9.
 15 1 1 2 0 0 -3.763 -0.618055 -0.509018 4.23781 1.7768 0. 1
 -15 1 1 2 0 0 3.763 0.618055 1.457 4.45227 1.7768 0. -1
</event>
<event>
 4 80 1 -1 -1 -1
 11 -1 0 0 0 0 0 0 4.96969 4.96969 0 0. 9.
 -11 -1 0 0 0 0 0 0 -5 5 0 0. 9.
 15 1 1 2 0 0 -4.28896 -1.74998 0.467659 4.98338 1.7768 0. 1
 -15 1 1 2 0 0 4.28896 1.74998 -0.497966 4.98631 1.7768 0. -1
</event>
<event>
 4 80 1 -1 -1 -1
 11 -1 0 0 0 0 0 0 5 5 0 0. 9.
 -11 -1 0 0 0 0 0 0 -5 5 0 0. 9.
 15 1 1 2 0 0 2.13769 -3.68104 -1.92938 5 1.7768 0. -1
 -15 1 1 2 0 0 -2.13769 3.68104 1.92938 5 1.7768 0. 1
</event>
<event>
 4 80 1 -1 -1 -1
 11 -1 0 0 0 0 0 0 4.99967 4.99967 0 0. 9.
 -11 -1 0 0 0 0 0 0 -5 5 0 0. 9.
 15 1 1 2 0 0 -3.12528 3.10949 -1.55074 4.99989 1.7768 0. -1
 -15 1 1 2 0 0 3.12528 -3.10949 1.55041 4.99978 1.7768 0. 1
</event>
<event>
 4 80 1 -1 -1 -1
 11 -1 0 0 0 0 0 0 5 5 0 0. 9.
 -11 -1 0 0 0 0 0 0 -5 5 0 0. 9.
 15 1 1 2 0 0 0.267767 2.03516 -4.19865 5 1.7768 0. -1
 -15 1 1 2 0 0 -0.267767 -2.03516 4.19865 5 1.7768 0. 1
</event>
<event>
 4 80 1 -1 -1 -1
 11 -1 0 0 0 0 0 0 5 5 0 0. 9.
 -11 -1 0 0 0 0 0 0 -4.99998 4.99998 0 0. 9.
 15 1 1 2 0 0 -1.03488 3.07281 -3.36585 4.99998 1.7768 0. 1
 -15 1 1 2 0 0 1.03488 -3.07281 3.36587 4.99999 1.7768 0. -1
</event>
<event>
 4 80 1 -1 -1 -1
 11 -1 0 0 0 0 0 0 4.98854 4.98854 0 0. 9.
 -11 -1 0 0 0 0 0 0 -5 5 0 0. 9.
 15 1 1 2 0 0 2.08976 -2.21384 3.53218 4.99021 1.7768 0. 1
 -15 1 1 2 0 0 -2.08976 2.21384 -3.54364 4.99833 1.7768 0. -1
</event>
<event>
 4 80 1 -1 -1 -1
 11 -1 0 0 0 0 0 0 3.7693 3.7693 0 0. 9.
 -11 -1 0 0 0 0 0 0 -4.98753 4.98753 0 0. 9.
 15 1 1 2 0 0 -1.47099 -0.635755 3.04216 3.87046 1.7768 0. -1
 -15 1 1 2 0 0 1.47099 0.635755 -4.26039 4.88637 1.7768 0. 1
</event>
<event>
 4 80 1 -1 -1 -1
 11 -1 0 0 0 0 0 0 4.9996 4.9996 0 0. 9.
 -11 -1 0 0 0 0 0 0 -5 5 0 0. 9.
 15 1 1 2 0 0 0.144197 -4.27737 1.87692 4.99973 1.7768 0. -1
 -15 1 1 2 0 0 -0.144197 4.27737 -1.87732 4.99988 1.7768 0. 1
</event>
<event>
 4 80 1 -1 -1 -1
 11 -1 0 0 0 0 0 0 4.99998 4.99998 0 0. 9.
 -11 -1 0 0 0 0 0 0 -5 5 0 0. 9.
 15 1 1 2 0 0 3.8527 -2.17878 1.50058 4.99999 1.7768 0. -1
 -15 1 1 2 0 0 -3.8527 2.17878 -1.5006 4.99999 1.7768 0. 1
</event>
<event>
 4 80 1 -1 -1 -1
 11 -1 0 0 0 0 0 0 4.98613 4.98613 0 0. 9.
 -11 -1 0 0 0 0 0 0 -5 5 0 0. 9.
 15 1 1 2 0 0 -0.114665 0.785444 4.5912 4.98667 1.7768 0. 1
 -15 1 1 2 0 0 0.114665 -0.785444 -4.60507 4.99945 1.7768 0. -1
</event>
<event>
 4 80 1 -1 -1 -1
 11 -1 0 0 0 0 0 0 5 5 0 0. 9.
 -11 -1 0 0 0 0 0 0 -4.92288 4.92288 0 0. 9.
 15 1 1 2 0 0 -2.81924 -3.4039 -1.34784 4.95066 1.7768 0. -1
 -15 1 1 2 0 0 2.81924 3.4039 1.42496 4.97221 1.7768 0. 1
</event>
<event>
 4 80 1 -1 -1 -1
 11 -1 0 0 0 0 0 0 5 5 0 0. 9.
 -11 -1 0 0 0 0 0 0 -5 5 0 0. 9.
 15 1 1 2 0 0 2.24385 -4.06532 -0.529691 5 1.7768 0. 1
 -15 1 1 2 0 0 -2.24385 4.06532 0.529691 5 1.7768 0. -1
</event>
<event>
 4 80 1 -1 -1 -1
 11 -1 0 0 0 0 0 0 5 5 0 0. 9.
 -11 -1 0 0 0 0 0 0 -5 5 0 0. 9.
 15 1 1 2 0 0 4.64457 0.442718 -0.272521 5 1.7768 0. 1
 -15 1 1 2 0 0 -4.64457 -0.442718 0.272521 5 1.7768 0. -1
</event>
<event>
 4 80 1 -1 -1 -1
 11 -1 0 0 0 0 0 0 5 5 0 0. 9.
 -11 -1 0 0 0 0 0 0 -4.99896 4.99896 0 0. 9.
 15 1 1 2 0 0 -2.00634 1.35443 -3.99663 4.99907 1.7768 0. 1
 -15 1 1 2 0 0 2.00634 -1.35443 3.99767 4.9999 1.7768 0. -1
</event>
<event>
 4 80 1 -1 -1 -1
 11 -1 0 0 0 0 0 0 5 5 0 0. 9.
 -11 -1 0 0 0 0 0 0 -5 5 0 0. 9.
 15 1 1 2 0 0 -2.17397 0.590082 4.09486 5 1.7768 0. 1
 -15 1 1 2 0 0 2.17397 -0.590082 -4.09486 5 1.7768 0. -1
</event>
<event>
 4 80 1 -1 -1 -1
 11 -1 0 0 0 0 0 0 5 5 0 0. 9.
 -11 -1 0 0 0 0 0 0 -5 5 0 0. 9.
 15 1 1 2 0 0 -4.05271 0.462289 -2.28125 5 1.7768 0. 1
 -15 1 1 2 0 0 4.05271 -0.462289 2.28125 5 1.7768 0. -1
</event>
<event>
 4 80 1 -1 -1 -1
 11 -1 0 0 0 0 0 0 4.99996 4.99996 0 0. 9.
 -11 -1 0 0 0 0 0 0 -4.99887 4.99887 0 0. 9.
 15 1 1 2 0 0 1.14341 3.73557 2.56464 4.99969 1.7768 0. -1
 -15 1 1 2 0 0 -1.14341 -3.73557 -2.56355 4.99914 1.7768 0. 1
</event>
<event>
 4 80 1 -1 -1 -1
 11 -1 0 0 0 0 0 0 5 5 0 0. 9.
 -11 -1 0 0 0 0 0 0 -4.71118 4.71118 0 0. 9.
 15 1 1 2 0 0 1.21245 -4.00514 1.84428 4.90615 1.7768 0. 1
 -15 1 1 2 0 0 -1.21245 4.00514 -1.55547 4.80504 1.7768 0. -1
</event>
<event>
 4 80 1 -1 -1 -1
 11 -1 0 0 0 0 0 0 2.53767 2.53767 0 0. 9.
 -11 -1 0 0 0 0 0 0 -4.85272 4.85272 0 0. 9.
 15 1 1 2 0 0 1.43146 2.52437 -0.254576 3.41234 1.7768 0. -1
 -15 1 1 2 0 0 -1.43146 -2.52437 -2.06048 3.97804 1.7768 0. 1
</event>
<event>
 4 80 1 -1 -1 -1
 11 -1 0 0 0 0 0 0 4.99958 4.99958 0 0. 9.
 -11 -1 0 0 0 0 0 0 -5 5 0 0. 9.
 15 1 1 2 0 0 -0.710318 -4.61779 -0.108228 4.9998 1.7768 0. 1
 -15 1 1 2 0 0 0.710318 4.61779 0.10781 4.99979 1.7768 0. -1
</event>
<event>
 4 80 1 -1 -1 -1
 11 -1 0 0 0 0 0 0 4.45771 4.45771 0 0. 9.
 -11 -1 0 0 0 0 0 0 -4.98582 4.98582 0 0. 9.
 15 1 1 2 0 0 -3.45102 -2.65101 -0.62542 4.74197 1.7768 0. -1
 -15 1 1 2 0 0 3.45102 2.65101 0.097311 4.70155 1.7768 0. 1
</event>
<event>
 4 80 1 -1 -1 -1
 11 -1 0 0 0 0 0 0 4.99995 4.99995 0 0. 9.
 -11 -1 0 0 0 0 0 0 -5 5 0 0. 9.
 15 1 1 2 0 0 -3.84244 2.64406 0.294301 4.99997 1.7768 0. 1
 -15 1 1 2 0 0 3.84244 -2.64406 -0.294349 4.99998 1.7768 0. -1
</event>
<event>
 4 80 1 -1 -1 -1
 11 -1 0 0 0 0 0 0 5 5 0 0. 9.
 -11 -1 0 0 0 0 0 0 -2.00387 2.00387 0 0. 9.
 15 1 1 2 0 0 0.227657 0.452383 4.34141 4.71827 1.7768 0. -1
 -15 1 1 2 0 0 -0.227657 -0.452383 -1.34528 2.2856 1.7768 0. 1
</event>
<event>
 4 80 1 -1 -1 -1
 11 -1 0 0 0 0 0 0 3.9242 3.9242 0 0. 9.
 -11 -1 0 0 0 0 0 0 -4.97417 4.97417 0 0. 9.
 15 1 1 2 0 0 -1.01225 -0.0373549 3.41866 3.98385 1.7768 0. 1
 -15 1 1 2 0 0 1.01225 0.0373549 -4.46864 4.91452 1.7768 0. -1
</event>
<event>
 4 80 1 -1 -1 -1
 11 -1 0 0 0 0 0 0 4.65183 4.65183 0 0. 9.
 -11 -1 0 0 0 0 0 0 -4.48016 4.48016 0 0. 9.
 15 1 1 2 0 0 -0.853422 3.44857 -2.1645 4.52369 1.7768 0. -1
 -15 1 1 2 0 0 0.853422 -3.44857 2.33618 4.6083 1.7768 0. 1
</event>
<event>
 4 80 1 -1 -1 -1
 11 -1 0 0 0 0 0 0 4.9415 4.9415 0 0. 9.
 -11 -1 0 0 0 0 0 0 -4.99997 4.99997 0 0. 9.
 15 1 1 2 0 0 -1.85143 4.18605 0.744608 4.96619 1.7768 0. 1
 -15 1 1 2 0 0 1.85143 -4.18605 -0.803077 4.97529 1.7768 0. -1
</event>
<event>
 4 80 1 -1 -1 -1
 11 -1 0 0 0 0 0 0 5 5 0 0. 9.
 -11 -1 0 0 0 0 0 0 -4.17949 4.17949 0 0. 9.
 15 1 1 2 0 0 2.94942 1.31586 3.12466 4.83237 1.7768 0. -1
 -15 1 1 2 0 0 -2.94942 -1.31586 -2.30415 4.34712 1.7768 0. 1
</event>
<event>
 4 80 1 -1 -1 -1
 11 -1 0 0 0 0 0 0 5 5 0 0. 9.
 -11 -1 0 0 0 0 0 0 -4.9999 4.9999 0 0. 9.
 15 1 1 2 0 0 3.07326 -0.03603 -3.52068 4.99992 1.7768 0. 1
 -15 1 1 2 0 0 -3.07326 0.03603 3.52078 4.99999 1.7768 0. -1
</event>
<event>
 4 80 1 -1 -1 -1
 11 -1 0 0 0 0 0 0 4.66662 4.66662 0 0. 9.
 -11 -1 0 0 0 0 0 0 -4.99821 4.99821 0 0. 9.
 15 1 1 2 0 0 3.18958 1.72173 2.48704 4.7414 1.7768 0. -1
 -15 1 1 2 0 0 -3.18958 -1.72173 -2.81862 4.92343 1.7768 0. 1
</event>
<event>
 4 80 1 -1 -1 -1
 11 -1 0 0 0 0 0 0 4.99986 4.99986 0 0. 9.
 -11 -1 0 0 0 0 0 0 -5 5 0 0. 9.
 15 1 1 2 0 0 -0.388342 -0.938192 -4.56193 4.99999 1.7768 0. 1
 -15 1 1 2 0 0 0.388342 0.938192 4.56179 4.99987 1.7768 0. -1
</event>
<event>
 4 80 1 -1 -1 -1
 11 -1 0 0 0 0 0 0 4.99984 4.99984 0 0. 9.
 -11 -1 0 0 0 0 0 0 -5 5 0 0. 9.
 15 1 1 2 0 0 -1.78969 1.55569 -4.02728 4.99998 1.7768 0. 1
 -15 1 1 2 0 0 1.78969 -1.55569 4.02711 4.99985 1.7768 0. -1
</event>
<event>
 4 80 1 -1 -1 -1
 11 -1 0 0 0 0 0 0 5 5 0 0. 9.
 -11 -1 0 0 0 0 0 0 -5 5 0 0. 9.
 15 1 1 2 0 0 -2.55128 -1.22688 -3.7186 5 1.7768 0. -1
 -15 1 1 2 0 0 2.55128 1.22688 3.7186 5 1.7768 0. 1
</event>
<event>
 4 80 1 -1 -1 -1
 11 -1 0 0 0 0 0 0 5 5 0 0. 9.
 -11 -1 0 0 0 0 0 0 -5 5 0 0. 9.
 15 1 1 2 0 0 -1.15986 1.73439 4.18197 5 1.7768 0. -1
 -15 1 1 2 0 0 1.15986 -1.73439 -4.18197 5 1.7768 0. 1
</event>
<event>
 4 80 1 -1 -1 -1
 11 -1 0 0 0 0 0 0 4.99971 4.99971 0 0. 9.
 -11 -1 0 0 0 0 0 0 -1.53035 1.53035 0 0. 9.
 15 1 1 2 0 0 -0.18142 -0.939105 3.96766 4.45139 1.7768 0. -1
 -15 1 1 2 0 0 0.18142 0.939105 -0.498293 2.07867 1.7768 0. 1
</event>
<event>
 4 80 1 -1 -1 -1
 11 -1 0 0 0 0 0 0 5 5 0 0. 9.
 -11 -1 0 0 0 0 0 0 -4.99988 4.99988 0 0. 9.
 15 1 1 2 0 0 -3.12921 -1.08789 3.29645 4.99998 1.7768 0. 1
 -15 1 1 2 0 0 3.12921 1.08789 -3.29634 4.9999 1.7768 0. -1
</event>
<event>
 4 80 1 -1 -1 -1
 11 -1 0 0 0 0 0 0 4.99816 4.99816 0 0. 9.
 -11 -1 0 0 0 0 0 0 -5 5 0 0. 9.
 15 1 1 2 0 0 3.96473 2.08231 -1.33433 4.99933 1.7768 0. 1
 -15 1 1 2 0 0 -3.96473 -2.08231 1.33249 4.99884 1.7768 0. -1
</event>
<event>
 4 80 1 -1 -1 -1
 11 -1 0 0 0 0 0 0 4.98974 4.98974 0 0. 9.
 -11 -1 0 0 0 0 0 0 -4.90528 4.90528 0 0. 9.
 15 1 1 2 0 0 -3.17543 3.29717 0.645316 4.95266 1.7768 0. 1
 -15 1 1 2 0 0 3.17543 -3.29717 -0.560855 4.94236 1.7768 0. -1
</event>
<event>
 4 80 1 -1 -1 -1
 11 -1 0 0 0 0 0 0 4.99996 4.99996 0 0. 9.
 -11 -1 0 0 0 0 0 0 -5 5 0 0. 9.
 15 1 1 2 0 0 1.8553 -0.561513 4.25259 4.99997 1.7768 0. -1
 -15 1 1 2 0 0 -1.8553 0.561513 -4.25262 5 1.7768 0. 1
</event>
<event>
 4 80 1 -1 -1 -1
 11 -1 0 0 0 0 0 0 4.32713 4.32713 0 0. 9.
 -11 -1 0 0 0 0 0 0 -4.99184 4.99184 0 0. 9.
 15 1 1 2 0 0 -4.20337 -0.824039 -0.641793 4.68156 1.7768 0. -1
 -15 1 1 2 0 0 4.20337 0.824039 -0.0229158 4.63742 1.7768 0. 1
</event>
<event>
 4 80 1 -1 -1 -1
 11 -1 0 0 0 0 0 0 5 5 0 0. 9.
 -11 -1 0 0 0 0 0 0 -5 5 0 0. 9.
 15 1 1 2 0 0 0.928498 -0.0942662 -4.57944 5 1.7768 0. 1
 -15 1 1 2 0 0 -0.928498 0.0942662 4.57944 5 1.7768 0. -1
</event>
<event>
 4 80 1 -1 -1 -1
 11 -1 0 0 0 0 0 0 5 5 0 0. 9.
 -11 -1 0 0 0 0 0 0 -5 5 0 0. 9.
 15 1 1 2 0 0 3.01553 2.22094 2.79577 5 1.7768 0. -1
 -15 1 1 2 0 0 -3.01553 -2.22094 -2.79577 5 1.7768 0. 1
</event>
<event>
 4 80 1 -1 -1 -1
 11 -1 0 0 0 0 0 0 5 5 0 0. 9.
 -11 -1 0 0 0 0 0 0 -5 5 0 0. 9.
 15 1 1 2 0 0 0.659754 3.76522 2.68889 5 1.7768 0. 1
 -15 1 1 2 0 0 -0.659754 -3.76522 -2.68889 5 1.7768 0. -1
</event>
<event>
 4 80 1 -1 -1 -1
 11 -1 0 0 0 0 0 0 5 5 0 0. 9.
 -11 -1 0 0 0 0 0 0 -5 5 0 0. 9.
 15 1 1 2 0 0 -3.48727 2.96383 0.947056 5 1.7768 0. 1
 -15 1 1 2 0 0 3.48727 -2.96383 -0.947058 5 1.7768 0. -1
</event>
<event>
 4 80 1 -1 -1 -1
 11 -1 0 0 0 0 0 0 5 5 0 0. 9.
 -11 -1 0 0 0 0 0 0 -4.58337 4.58337 0 0. 9.
 15 1 1 2 0 0 2.96768 2.90798 1.78958 4.86043 1.7768 0. -1
 -15 1 1 2 0 0 -2.96768 -2.90798 -1.37295 4.72294 1.7768 0. 1
</event>
<event>
 4 80 1 -1 -1 -1
 11 -1 0 0 0 0 0 0 5 5 0 0. 9.
 -11 -1 0 0 0 0 0 0 -5 5 0 0. 9.
 15 1 1 2 0 0 -3.17097 -0.164147 3.42932 5 1.7768 0. -1
 -15 1 1 2 0 0 3.17097 0.164147 -3.42932 5 1.7768 0. 1
</event>
<event>
 4 80 1 -1 -1 -1
 11 -1 0 0 0 0 0 0 5 5 0 0. 9.
 -11 -1 0 0 0 0 0 0 -4.99944 4.99944 0 0. 9.
 15 1 1 2 0 0 2.85049 0.458631 -3.67447 4.99951 1.7768 0. -1
 -15 1 1 2 0 0 -2.85049 -0.458631 3.67503 4.99993 1.7768 0. 1
</event>
<event>
 4 80 1 -1 -1 -1
 11 -1 0 0 0 0 0 0 5 5 0 0. 9.
 -11 -1 0 0 0 0 0 0 -5 5 0 0. 9.
 15 1 1 2 0 0 -0.562375 -3.67377 2.83362 5 1.7768 0. 1
 -15 1 1 2 0 0 0.562375 3.67377 -2.83362 5 1.7768 0. -1
</event>
<event>
 4 80 1 -1 -1 -1
 11 -1 0 0 0 0 0 0 5 5 0 0. 9.
 -11 -1 0 0 0 0 0 0 -5 5 0 0. 9.
 15 1 1 2 0 0 3.04045 3.41008 0.984504 5 1.7768 0. 1
 -15 1 1 2 0 0 -3.04045 -3.41008 -0.984504 5 1.7768 0. -1
</event>
<event>
 4 80 1 -1 -1 -1
 11 -1 0 0 0 0 0 0 4.99939 4.99939 0 0. 9.
 -11 -1 0 0 0 0 0 0 -4.99995 4.99995 0 0. 9.
 15 1 1 2 0 0 4.38557 -0.186553 -1.6037 4.99976 1.7768 0. 1
 -15 1 1 2 0 0 -4.38557 0.186553 1.60314 4.99958 1.7768 0. -1
</event>
<event>
 4 80 1 -1 -1 -1
 11 -1 0 0 0 0 0 0 4.99881 4.99881 0 0. 9.
 -11 -1 0 0 0 0 0 0 -4.98025 4.98025 0 0. 9.
 15 1 1 2 0 0 1.3039 2.76865 3.52667 4.99607 1.7768 0. -1
 -15 1 1 2 0 0 -1.3039 -2.76865 -3.50812 4.98299 1.7768 0. 1
</event>
<event>
 4 80 1 -1 -1 -1
 11 -1 0 0 0 0 0 0 5 5 0 0. 9.
 -11 -1 0 0 0 0 0 0 -4.98362 4.98362 0 0. 9.
 15 1 1 2 0 0 -4.18545 -1.63193 -1.24846 4.98975 1.7768 0. 1
 -15 1 1 2 0 0 4.18545 1.63193 1.26484 4.99387 1.7768 0. -1
</event>
<event>
 4 80 1 -1 -1 -1
 11 -1 0 0 0 0 0 0 4.61561 4.61561 0 0. 9.
 -11 -1 0 0 0 0 0 0 -5 5 0 0. 9.
 15 1 1 2 0 0 -2.38335 -0.560007 -3.92698 4.95711 1.7768 0. -1
 -15 1 1 2 0 0 2.38335 0.560007 3.54259 4.6585 1.7768 0. 1
</event>
<event>
 4 80 1 -1 -1 -1
 11 -1 0 0 0 0 0 0 4.38556 4.38556 0 0. 9.
 -11 -1 0 0 0 0 0 0 -4.9841 4.9841 0 0. 9.
 15 1 1 2 0 0 3.59273 -2.07079 0.929793 4.60632 1.7768 0. 1
 -15 1 1 2 0 0 -3.59273 2.07079 -1.52833 4.76334 1.7768 0. -1
</event>
<event>
 4 80 1 -1 -1 -1
 11 -1 0 0 0 0 0 0 5 5 0 0. 9.
 -11 -1 0 0 0 0 0 0 -3.86317 3.86317 0 0. 9.
 15 1 1 2 0 0 -3.81622 -0.858064 -0.365748 4.31176 1.7768 0. -1
 -15 1 1 2 0 0 3.81622 0.858064 1.50258 4.5514 1.7768 0. 1
</event>
<event>
 4 80 1 -1 -1 -1
 11 -1 0 0 0 0 0 0 4.99918 4.99918 0 0. 9.
 -11 -1 0 0 0 0 0 0 -5 5 0 0. 9.
 15 1 1 2 0 0 4.22856 -0.108217 -1.9868 4.99975 1.7768 0. -1
 -15 1 1 2 0 0 -4.22856 0.108217 1.98598 4.99943 1.7768 0. 1
</event>
<event>
 4 80 1 -1 -1 -1
 11 -1 0 0 0 0 0 0 5 5 0 0. 9.
 -11 -1 0 0 0 0 0 0 -2.1906 2.1906 0 0. 9.
 15 1 1 2 0 0 0.191428 -0.359181 -1.59598 2.42292 1.7768 0. 1
 -15 1 1 2 0 0 -0.191428 0.359181 4.40538 4.76768 1.7768 0. -1
</event>
<event>
 4 80 1 -1 -1 -1
 11 -1 0 0 0 0 0 0 4.99914 4.99914 0 0. 9.
 -11 -1 0 0 0 0 0 0 -5 5 0 0. 9.
 15 1 1 2 0 0 1.6225 -0.0285783 -4.38274 4.99995 1.7768 0. -1
 -15 1 1 2 0 0 -1.6225 0.0285783 4.38189 4.9992 1.7768 0. 1
</event>
<event>
 4 80 1 -1 -1 -1
 11 -1 0 0 0 0 0 0 4.99939 4.99939 0 0. 9.
 -11 -1 0 0 0 0 0 0 -1.73006 1.73006 0 0. 9.
 15 1 1 2 0 0 -0.74082 1.51339 3.49793 4.26994 1.7768 0. 1
 -15 1 1 2 0 0 0.74082 -1.51339 -0.228608 2.4595 1.7768 0. -1
</event>
<event>
 4 80 1 -1 -1 -1
 11 -1 0 0 0 0 0 0 4.99436 4.99436 0 0. 9.
 -11 -1 0 0 0 0 0 0 -5 5 0 0. 9.
 15 1 1 2 0 0 -3.94123 -1.01838 2.28708 4.99588 1.7768 0. 1
 -15 1 1 2 0 0 3.94123 1.01838 -2.29272 4.99847 1.7768 0. -1
</event>
<event>
 4 80 1 -1 -1 -1
 11 -1 0 0 0 0 0 0 4.97814 4.97814 0 0. 9.
 -11 -1 0 0 0 0 0 0 -5 5 0 0. 9.
 15 1 1 2 0 0 0.422242 2.83061 -3.69093 4.99713 1.7768 0. -1
 -15 1 1 2 0 0 -0.422242 -2.83061 3.66907 4.98101 1.7768 0. 1
</event>
<event>
 4 80 1 -1 -1 -1
 11 -1 0 0 0 0 0 0 4.90634 4.90634 0 0. 9.
 -11 -1 0 0 0 0 0 0 -5 5 0 0. 9.
 15 1 1 2 0 0 -0.708005 -3.79418 -2.59192 4.97723 1.7768 0. -1
 -15 1 1 2 0 0 0.708005 3.79418 2.49826 4.92911 1.7768 0. 1
</event>
<event>
 4 80 1 -1 -1 -1
 11 -1 0 0 0 0 0 0 4.3898 4.3898 0 0. 9.
 -11 -1 0 0 0 0 0 0 -4.99292 4.99292 0 0. 9.
 15 1 1 2 0 0 1.99207 3.41851 -2.0675 4.80488 1.7768 0. 1
 -15 1 1 2 0 0 -1.99207 -3.41851 1.46438 4.57785 1.7768 0. -1
</event>
<event>
 4 80 1 -1 -1 -1
 11 -1 0 0 0 0 0 0 1.98078 1.98078 0 0. 9.
 -11 -1 0 0 0 0 0 0 -5 5 0 0. 9.
 15 1 1 2 0 0 -1.4465 -0.749087 -3.75336 4.46082 1.7768 0. 1
 -15 1 1 2 0 0 1.4465 0.749087 0.734141 2.51996 1.7768 0. -1
</event>
<event>
 4 80 1 -1 -1 -1
 11 -1 0 0 0 0 0 0 5 5 0 0. 9.
 -11 -1 0 0 0 0 0 0 -3.4296 3.4296 0 0. 9.
 15 1 1 2 0 0 1.04038 1.8409 3.92546 4.79982 1.7768 0. 1
 -15 1 1 2 0 0 -1.04038 -1.8409 -2.35506 3.62979 1.7768 0. -1
</event>
<event>
 4 80 1 -1 -1 -1
 11 -1 0 0 0 0 0 0 4.99999 4.99999 0 0. 9.
 -11 -1 0 0 0 0 0 0 -4.99999 4.99999 0 0. 9.
 15 1 1 2 0 0 2.69598 -3.71085 0.896353 4.99999 1.7768 0. 1
 -15 1 1 2 0 0 -2.69598 3.71085 -0.896354 4.99999 1.7768 0. -1
</event>
<event>
 4 80 1 -1 -1 -1
 11 -1 0 0 0 0 0 0 5 5 0 0. 9.
 -11 -1 0 0 0 0 0 0 -4.99884 4.99884 0 0. 9.
 15 1 1 2 0 0 -1.2419 0.387841 -4.48759 4.9989 1.7768 0. -1
 -15 1 1 2 0 0 1.2419 -0.387841 4.48876 4.99994 1.7768 0. 1
</event>
<event>
 4 80 1 -1 -1 -1
 11 -1 0 0 0 0 0 0 5 5 0 0. 9.
 -11 -1 0 0 0 0 0 0 -4.99297 4.99297 0 0. 9.
 15 1 1 2 0 0 -3.06004 0.908761 -3.40492 4.99409 1.7768 0. -1
 -15 1 1 2 0 0 3.06004 -0.908761 3.41195 4.99888 1.7768 0. 1
</event>
<event>
 4 80 1 -1 -1 -1
 11 -1 0 0 0 0 0 0 4.99995 4.99995 0 0. 9.
 -11 -1 0 0 0 0 0 0 -4.99975 4.99975 0 0. 9.
 15 1 1 2 0 0 -3.53261 -2.63097 -1.56177 4.99982 1.7768 0. -1
 -15 1 1 2 0 0 3.53261 2.63097 1.56197 4.99988 1.7768 0. 1
</event>
<event>
 4 80 1 -1 -1 -1
 11 -1 0 0 0 0 0 0 5 5 0 0. 9.
 -11 -1 0 0 0 0 0 0 -4.99419 4.99419 0 0. 9.
 15 1 1 2 0 0 1.52745 -1.6623 4.09153 4.99947 1.7768 0. 1
 -15 1 1 2 0 0 -1.52745 1.6623 -4.08573 4.99472 1.7768 0. -1
</event>
<event>
 4 80 1 -1 -1 -1
 11 -1 0 0 0 0 0 0 5 5 0 0. 9.
 -11 -1 0 0 0 0 0 0 -4.99995 4.99995 0 0. 9.
 15 1 1 2 0 0 1.17971 -4.271 -1.48619 4.99997 1.7768 0. 1
 -15 1 1 2 0 0 -1.17971 4.271 1.48624 4.99998 1.7768 0. -1
</event>
<event>
 4 80 1 -1 -1 -1
 11 -1 0 0 0 0 0 0 5 5 0 0. 9.
 -11 -1 0 0 0 0 0 0 -4.48765 4.48765 0 0. 9.
 15 1 1 2 0 0 2.58962 -1.02299 3.65641 4.92744 1.7768 0. 1
 -15 1 1 2 0 0 -2.58962 1.02299 -3.14405 4.5602 1.7768 0. -1
</event>
<event>
 4 80 1 -1 -1 -1
 11 -1 0 0 0 0 0 0 5 5 0 0. 9.
 -11 -1 0 0 0 0 0 0 -5 5 0 0. 9.
 15 1 1 2 0 0 3.1561 -2.06785 2.75777 5 1.7768 0. 1
 -15 1 1 2 0 0 -3.1561 2.06785 -2.75776 5 1.7768 0. -1
</event>
<event>
 4 80 1 -1 -1 -1
 11 -1 0 0 0 0 0 0 5 5 0 0. 9.
 -11 -1 0 0 0 0 0 0 -4.99918 4.99918 0 0. 9.
 15 1 1 2 0 0 -0.634695 -4.27448 1.77923 4.99974 1.7768 0. -1
 -15 1 1 2 0 0 0.634695 4.27448 -1.77842 4.99945 1.7768 0. 1
</event>
<event>
 4 80 1 -1 -1 -1
 11 -1 0 0 0 0 0 0 4.99983 4.99983 0 0. 9.
 -11 -1 0 0 0 0 0 0 -4.99332 4.99332 0 0. 9.
 15 1 1 2 0 0 -2.75362 3.7028 -0.714266 4.99611 1.7768 0. -1
 -15 1 1 2 0 0 2.75362 -3.7028 0.720771 4.99704 1.7768 0. 1
</event>
<event>
 4 80 1 -1 -1 -1
 11 -1 0 0 0 0 0 0 4.99982 4.99982 0 0. 9.
 -11 -1 0 0 0 0 0 0 -5 5 0 0. 9.
 15 1 1 2 0 0 2.52284 2.41853 3.10271 4.99985 1.7768 0. 1
 -15 1 1 2 0 0 -2.52284 -2.41853 -3.10289 4.99997 1.7768 0. -1
</event>
<event>
 4 80 1 -1 -1 -1
 11 -1 0 0 0 0 0 0 4.98766 4.98766 0 0. 9.
 -11 -1 0 0 0 0 0 0 -4.99996 4.99996 0 0. 9.
 15 1 1 2 0 0 -2.51949 1.37211 -3.68716 4.99834 1.7768 0. 1
 -15 1 1 2 0 0 2.51949 -1.37211 3.67487 4.98928 1.7768 0. -1
</event>
<event>
 4 80 1 -1 -1 -1
 11 -1 0 0 0 0 0 0 4.99999 4.99999 0 0. 9.
 -11 -1 0 0 0 0 0 0 -5 5 0 0. 9.
 15 1 1 2 0 0 -1.48255 -0.969151 4.32492 4.99999 1.7768 0. -1
 -15 1 1 2 0 0 1.48255 0.969151 -4.32493 5 1.7768 0. 1
</event>
<event>
 4 80 1 -1 -1 -1
 11 -1 0 0 0 0 0 0 4.98611 4.98611 0 0. 9.
 -11 -1 0 0 0 0 0 0 -5 5 0 0. 9.
 15 1 1 2 0 0 1.50203 0.564967 -4.38845 4.99915 1.7768 0. -1
 -15 1 1 2 0 0 -1.50203 -0.564967 4.37456 4.98696 1.7768 0. 1
</event>
<event>
 4 80 1 -1 -1 -1
 11 -1 0 0 0 0 0 0 5 5 0 0. 9.
 -11 -1 0 0 0 0 0 0 -5 5 0 0. 9.
 15 1 1 2 0 0 1.63844 -2.48919 3.60024 5 1.7768 0. -1
 -15 1 1 2 0 0 -1.63844 2.48919 -3.60024 5 1.7768 0. 1
</event>
<event>
 4 80 1 -1 -1 -1
 11 -1 0 0 0 0 0 0 5 5 0 0. 9.
 -11 -1 0 0 0 0 0 0 -5 5 0 0. 9.
 15 1 1 2 0 0 -2.30101 1.773 3.66116 5 1.7768 0. 1
 -15 1 1 2 0 0 2.30101 -1.773 -3.66116 5 1.7768 0. -1
</event>
<event>
 4 80 1 -1 -1 -1
 11 -1 0 0 0 0 0 0 5 5 0 0. 9.
 -11 -1 0 0 0 0 0 0 -4.71181 4.71181 0 0. 9.
 15 1 1 2 0 0 -1.05577 2.93287 3.41432 4.95294 1.7768 0. 1
 -15 1 1 2 0 0 1.05577 -2.93287 -3.12614 4.75887 1.7768 0. -1
</event>
<event>
 4 80 1 -1 -1 -1
 11 -1 0 0 0 0 0 0 4.65084 4.65084 0 0. 9.
 -11 -1 0 0 0 0 0 0 -4.99977 4.99977 0 0. 9.
 15 1 1 2 0 0 -2.49672 -0.0546659 3.55071 4.69062 1.7768 0. -1
 -15 1 1 2 0 0 2.49672 0.0546659 -3.89964 4.95999 1.7768 0. 1
</event>
<event>
 4 80 1 -1 -1 -1
 11 -1 0 0 0 0 0 0 5 5 0 0. 9.
 -11 -1 0 0 0 0 0 0 -5 5 0 0. 9.
 15 1 1 2 0 0 2.29161 -3.62836 1.85088 5 1.7768 0. 1
 -15 1 1 2 0 0 -2.29161 3.62836 -1.85088 5 1.7768 0. -1
</event>
<event>
 4 80 1 -1 -1 -1
 11 -1 0 0 0 0 0 0 5 5 0 0. 9.
 -11 -1 0 0 0 0 0 0 -5 5 0 0. 9.
 15 1 1 2 0 0 -2.37574 1.99776 3.49386 5 1.7768 0. 1
 -15 1 1 2 0 0 2.37574 -1.99776 -3.49386 5 1.7768 0. -1
</event>
<event>
 4 80 1 -1 -1 -1
 11 -1 0 0 0 0 0 0 4.98622 4.98622 0 0. 9.
 -11 -1 0 0 0 0 0 0 -5 5 0 0. 9.
 15 1 1 2 0 0 -2.4019 -2.77504 -2.88845 4.99709 1.7768 0. -1
 -15 1 1 2 0 0 2.4019 2.77504 2.87467 4.98914 1.7768 0. 1
</event>
<event>
 4 80 1 -1 -1 -1
 11 -1 0 0 0 0 0 0 5 5 0 0. 9.
 -11 -1 0 0 0 0 0 0 -0.704442 0.704442 0 0. 9.
 15 1 1 2 0 0 -0.271748 -0.0263846 2.96611 3.46844 1.7768 0. -1
 -15 1 1 2 0 0 0.271748 0.0263846 1.32945 2.236 1.7768 0. 1
</event>
<event>
 4 80 1 -1 -1 -1
 11 -1 0 0 0 0 0 0 4.53291 4.53291 0 0. 9.
 -11 -1 0 0 0 0 0 0 -5 5 0 0. 9.
 15 1 1 2 0 0 3.33409 -2.6531 -1.39759 4.82349 1.7768 0. 1
 -15 1 1 2 0 0 -3.33409 2.6531 0.930494 4.70942 1.7768 0. -1
</event>
<event>
 4 80 1 -1 -1 -1
 11 -1 0 0 0 0 0 0 5 5 0 0. 9.
 -11 -1 0 0 0 0 0 0 -5 5 0 0. 9.
 15 1 1 2 0 0 2.73208 2.78586 -2.57235 5 1.7768 0. -1
 -15 1 1 2 0 0 -2.73208 -2.78586 2.57235 5 1.7768 0. 1
</event>
<event>
 4 80 1 -1 -1 -1
 11 -1 0 0 0 0 0 0 5 5 0 0. 9.
 -11 -1 0 0 0 0 0 0 -3.06756 3.06756 0 0. 9.
 15 1 1 2 0 0 2.65153 0.861185 -1.19621 3.5158 1.7768 0. 1
 -15 1 1 2 0 0 -2.65153 -0.861185 3.12866 4.55175 1.7768 0. -1
</event>
<event>
 4 80 1 -1 -1 -1
 11 -1 0 0 0 0 0 0 5 5 0 0. 9.
 -11 -1 0 0 0 0 0 0 -5 5 0 0. 9.
 15 1 1 2 0 0 2.91038 -0.584817 3.6097 5 1.7768 0. -1
 -15 1 1 2 0 0 -2.91038 0.584817 -3.6097 5 1.7768 0. 1
</event>
<event>
 4 80 1 -1 -1 -1
 11 -1 0 0 0 0 0 0 4.74869 4.74869 0 0. 9.
 -11 -1 0 0 0 0 0 0 -5 5 0 0. 9.
 15 1 1 2 0 0 3.38415 0.592447 2.83882 4.79793 1.7768 0. -1
 -15 1 1 2 0 0 -3.38415 -0.592447 -3.09013 4.95077 1.7768 0. 1
</event>
<event>
 4 80 1 -1 -1 -1
 11 -1 0 0 0 0 0 0 4.99976 4.99976 0 0. 9.
 -11 -1 0 0 0 0 0 0 -5 5 0 0. 9.
 15 1 1 2 0 0 -0.631969 -3.3238 3.22387 4.9998 1.7768 0. -1
 -15 1 1 2 0 0 0.631969 3.3238 -3.2241 4.99996 1.7768 0. 1
</event>
<event>
 4 80 1 -1 -1 -1
 11 -1 0 0 0 0 0 0 5 5 0 0. 9.
 -11 -1 0 0 0 0 0 0 -3.86011 3.86011 0 0. 9.
 15 1 1 2 0 0 -2.54837 -3.07743 0.144431 4.37531 1.7768 0. -1
 -15 1 1 2 0 0 2.54837 3.07743 0.995459 4.4848 1.7768 0. 1
</event>
<event>
 4 80 1 -1 -1 -1
 11 -1 0 0 0 0 0 0 5 5 0 0. 9.
 -11 -1 0 0 0 0 0 0 -4.99692 4.99692 0 0. 9.
 15 1 1 2 0 0 2.49604 -3.91926 -0.484284 4.99831 1.7768 0. -1
 -15 1 1 2 0 0 -2.49604 3.91926 0.487361 4.99861 1.7768 0. 1
</event>
<event>
 4 80 1 -1 -1 -1
 11 -1 0 0 0 0 0 0 5 5 0 0. 9.
 -11 -1 0 0 0 0 0 0 -5 5 0 0. 9.
 15 1 1 2 0 0 3.70764 0.25399 -2.83393 5 1.7768 0. -1
 -15 1 1 2 0 0 -3.70764 -0.25399 2.83393 5 1.7768 0. 1
</event>
<event>
 4 80 1 -1 -1 -1
 11 -1 0 0 0 0 0 0 4.49502 4.49502 0 0. 9.
 -11 -1 0 0 0 0 0 0 -5 5 0 0. 9.
 15 1 1 2 0 0 1.93144 -3.46767 1.63757 4.64699 1.7768 0. 1
 -15 1 1 2 0 0 -1.93144 3.46767 -2.14255 4.84803 1.7768 0. -1
</event>
<event>
 4 80 1 -1 -1 -1
 11 -1 0 0 0 0 0 0 4.99993 4.99993 0 0. 9.
 -11 -1 0 0 0 0 0 0 -4.85284 4.85284 0 0. 9.
 15 1 1 2 0 0 0.448783 0.681357 -4.44807 4.85888 1.7768 0. 1
 -15 1 1 2 0 0 -0.448783 -0.681357 4.59517 4.99389 1.7768 0. -1
</event>
<event>
 4 80 1 -1 -1 -1
 11 -1 0 0 0 0 0 0 4.98964 4.98964 0 0. 9.
 -11 -1 0 0 0 0 0 0 -4.18115 4.18115 0 0. 9.
 15 1 1 2 0 0 -0.231574 -0.123489 -3.81168 4.21372 1.7768 0. 1
 -15 1 1 2 0 0 0.231574 0.123489 4.62016 4.95706 1.7768 0. -1
</event>
<event>
 4 80 1 -1 -1 -1
 11 -1 0 0 0 0 0 0 4.9286 4.9286 0 0. 9.
 -11 -1 0 0 0 0 0 0 -5 5 0 0. 9.
 15 1 1 2 0 0 3.01063 3.07362 -1.76034 4.9767 1.7768 0. 1
 -15 1 1 2 0 0 -3.01063 -3.07362 1.68894 4.9519 1.7768 0. -1
</event>
<event>
 4 80 1 -1 -1 -1
 11 -1 0 0 0 0 0 0 5 5 0 0. 9.
 -11 -1 0 0 0 0 0 0 -5 5 0 0. 9.
 15 1 1 2 0 0 1.37327 -0.691379 -4.41343 5 1.7768 0. -1
 -15 1 1 2 0 0 -1.37327 0.691379 4.41343 5 1.7768 0. 1
</event>
<event>
 4 80 1 -1 -1 -1
 11 -1 0 0 0 0 0 0 5 5 0 0. 9.
 -11 -1 0 0 0 0 0 0 -2.99175 2.99175 0 0. 9.
 15 1 1 2 0 0 -1.88894 2.62667 -0.188934 3.69607 1.7768 0. 1
 -15 1 1 2 0 0 1.88894 -2.62667 2.19718 4.29568 1.7768 0. -1
</event>
<event>
 4 80 1 -1 -1 -1
 11 -1 0 0 0 0 0 0 4.99039 4.99039 0 0. 9.
 -11 -1 0 0 0 0 0 0 -5 5 0 0. 9.
 15 1 1 2 0 0 -3.22014 -2.70157 2.02656 4.99324 1.7768 0. 1
 -15 1 1 2 0 0 3.22014 2.70157 -2.03617 4.99715 1.7768 0. -1
</event>
<event>
 4 80 1 -1 -1 -1
 11 -1 0 0 0 0 0 0 4.99999 4.99999 0 0. 9.
 -11 -1 0 0 0 0 0 0 -4.9998 4.9998 0 0. 9.
 15 1 1 2 0 0 3.07271 1.61728 3.12804 4.99996 1.7768 0. -1
 -15 1 1 2 0 0 -3.07271 -1.61728 -3.12785 4.99984 1.7768 0. 1
</event>
<event>
 4 80 1 -1 -1 -1
 11 -1 0 0 0 0 0 0 5 5 0 0. 9.
 -11 -1 0 0 0 0 0 0 -5 5 0 0. 9.
 15 1 1 2 0 0 3.07086 -1.19869 -3.31289 5 1.7768 0. 1
 -15 1 1 2 0 0 -3.07086 1.19869 3.31289 5 1.7768 0. -1
</event>
<event>
 4 80 1 -1 -1 -1
 11 -1 0 0 0 0 0 0 4.99786 4.99786 0 0. 9.
 -11 -1 0 0 0 0 0 0 -4.93232 4.93232 0 0. 9.
 15 1 1 2 0 0 -3.02118 -0.65986 -3.42134 4.94229 1.7768 0. -1
 -15 1 1 2 0 0 3.02118 0.65986 3.48688 4.98789 1.7768 0. 1
</event>
<event>
 4 80 1 -1 -1 -1
 11 -1 0 0 0 0 0 0 5 5 0 0. 9.
 -11 -1 0 0 0 0 0 0 -4.97947 4.97947 0 0. 9.
 15 1 1 2 0 0 -2.56713 -2.87294 2.63623 4.99514 1.7768 0. -1
 -15 1 1 2 0 0 2.56713 2.87294 -2.61569 4.98433 1.7768 0. 1
</event>
<event>
 4 80 1 -1 -1 -1
 11 -1 0 0 0 0 0 0 5 5 0 0. 9.
 -11 -1 0 0 0 0 0 0 -5 5 0 0. 9.
 15 1 1 2 0 0 1.85488 -1.30049 4.08784 5 1.7768 0. 1
 -15 1 1 2 0 0 -1.85488 1.30049 -4.08784 5 1.7768 0. -1
</event>
<event>
 4 80 1 -1 -1 -1
 11 -1 0 0 0 0 0 0 3.54509 3.54509 0 0. 9.
 -11 -1 0 0 0 0 0 0 -4.99828 4.99828 0 0. 9.
 15 1 1 2 0 0 -1.73073 2.29374 -3.2747 4.70511 1.7768 0. -1
 -15 1 1 2 0 0 1.73073 -2.29374 1.82151 3.83827 1.7768 0. 1
</event>
<event>
 4 80 1 -1 -1 -1
 11 -1 0 0 0 0 0 0 2.49064 2.49064 0 0. 9.
 -11 -1 0 0 0 0 0 0 -5 5 0 0. 9.
 15 1 1 2 0 0 -0.843323 -0.560258 1.79751 2.72284 1.7768 0. 1
 -15 1 1 2 0 0 0.843323 0.560258 -4.30687 4.7678 1.7768 0. -1
</event>
<event>
 4 80 1 -1 -1 -1
 11 -1 0 0 0 0 0 0 5 5 0 0. 9.
 -11 -1 0 0 0 0 0 0 -5 5 0 0. 9.
 15 1 1 2 0 0 0.658616 -4.50608 -1.05058 5 1.7768 0. 1
 -15 1 1 2 0 0 -0.658616 4.50608 1.05058 5 1.7768 0. -1
</event>
<event>
 4 80 1 -1 -1 -1
 11 -1 0 0 0 0 0 0 5 5 0 0. 9.
 -11 -1 0 0 0 0 0 0 -4.32735 4.32735 0 0. 9.
 15 1 1 2 0 0 -1.86537 3.85583 -0.0279909 4.6374 1.7768 0. -1
 -15 1 1 2 0 0 1.86537 -3.85583 0.700636 4.68995 1.7768 0. 1
</event>
<event>
 4 80 1 -1 -1 -1
 11 -1 0 0 0 0 0 0 4.99998 4.99998 0 0. 9.
 -11 -1 0 0 0 0 0 0 -0.711058 0.711058 0 0. 9.
 15 1 1 2 0 0 0.152154 -0.591152 2.38361 3.03512 1.7768 0. -1
 -15 1 1 2 0 0 -0.152154 0.591152 1.90532 2.67592 1.7768 0. 1
</event>
<event>
 4 80 1 -1 -1 -1
 11 -1 0 0 0 0 0 0 3.89589 3.89589 0 0. 9.
 -11 -1 0 0 0 0 0 0 -5 5 0 0. 9.
 15 1 1 2 0 0 2.724 -0.0768074 2.45374 4.07488 1.7768 0. -1
 -15 1 1 2 0 0 -2.724 0.0768074 -3.55785 4.82101 1.7768 0. 1
</event>
<event>
 4 80 1 -1 -1 -1
 11 -1 0 0 0 0 0 0 4.99898 4.99898 0 0. 9.
 -11 -1 0 0 0 0 0 0 -5 5 0 0. 9.
 15 1 1 2 0 0 -0.0443834 -4.48557 1.30899 4.99935 1.7768 0. -1
 -15 1 1 2 0 0 0.0443834 4.48557 -1.31002 4.99962 1.7768 0. 1
</event>
<event>
 4 80 1 -1 -1 -1
 11 -1 0 0 0 0 0 0 5 5 0 0. 9.
 -11 -1 0 0 0 0 0 0 -4.92671 4.92671 0 0. 9.
 15 1 1 2 0 0 -2.1634 3.81614 1.53086 4.97439 1.7768 0. -1
 -15 1 1 2 0 0 2.1634 -3.81614 -1.45757 4.95232 1.7768 0. 1
</event>
<event>
 4 80 1 -1 -1 -1
 11 -1 0 0 0 0 0 0 4.82641 4.82641 0 0. 9.
 -11 -1 0 0 0 0 0 0 -5 5 0 0. 9.
 15 1 1 2 0 0 0.655806 2.64705 -3.76669 4.97821 1.7768 0. 1
 -15 1 1 2 0 0 -0.655806 -2.64705 3.5931 4.8482 1.7768 0. -1
</event>
<event>
 4 80 1 -1 -1 -1
 11 -1 0 0 0 0 0 0 5 5 0 0. 9.
 -11 -1 0 0 0 0 0 0 -4.25344 4.25344 0 0. 9.
 15 1 1 2 0 0 3.04258 -2.74842 1.51646 4.71895 1.7768 0. 1
 -15 1 1 2 0 0 -3.04258 2.74842 -0.769899 4.53449 1.7768 0. -1
</event>
<event>
 4 80 1 -1 -1 -1
 11 -1 0 0 0 0 0 0 4.9999 4.9999 0 0. 9.
 -11 -1 0 0 0 0 0 0 -5 5 0 0. 9.
 15 1 1 2 0 0 2.76584 -0.597503 -3.71958 4.99999 1.7768 0. -1
 -15 1 1 2 0 0 -2.76584 0.597503 3.71948 4.99991 1.7768 0. 1
</event>
<event>
 4 80 1 -1 -1 -1
 11 -1 0 0 0 0 0 0 5 5 0 0. 9.
 -11 -1 0 0 0 0 0 0 -5 5 0 0. 9.
 15 1 1 2 0 0 4.18389 -0.692467 -1.96414 5 1.7768 0. -1
 -15 1 1 2 0 0 -4.18389 0.692467 1.96414 5 1.7768 0. 1
</event>
<event>
 4 80 1 -1 -1 -1
 11 -1 0 0 0 0 0 0 5 5 0 0. 9.
 -11 -1 0 0 0 0 0 0 -5 5 0 0. 9.
 15 1 1 2 0 0 -3.24893 1.55367 2.97873 5 1.7768 0. 1
 -15 1 1 2 0 0 3.24893 -1.55367 -2.97873 5 1.7768 0. -1
</event>
<event>
 4 80 1 -1 -1 -1
 11 -1 0 0 0 0 0 0 5 5 0 0. 9.
 -11 -1 0 0 0 0 0 0 -4.978 4.978 0 0. 9.
 15 1 1 2 0 0 3.9479 -2.28799 0.965694 4.99111 1.7768 0. -1
 -15 1 1 2 0 0 -3.9479 2.28799 -0.943695 4.9869 1.7768 0. 1
</event>
<event>
 4 80 1 -1 -1 -1
 11 -1 0 0 0 0 0 0 4.97774 4.97774 0 0. 9.
 -11 -1 0 0 0 0 0 0 -5 5 0 0. 9.
 15 1 1 2 0 0 0.780446 4.59001 0.220597 4.98835 1.7768 0. -1
 -15 1 1 2 0 0 -0.780446 -4.59001 -0.242854 4.98939 1.7768 0. 1
</event>
<event>
 4 80 1 -1 -1 -1
 11 -1 0 0 0 0 0 0 5 5 0 0. 9.
 -11 -1 0 0 0 0 0 0 -4.38939 4.38939 0 0. 9.
 15 1 1 2 0 0 0.837575 -3.99095 -1.16752 4.59892 1.7768 0. 1
 -15 1 1 2 0 0 -0.837575 3.99095 1.77813 4.79048 1.7768 0. -1
</event>
<event>
 4 80 1 -1 -1 -1
 11 -1 0 0 0 0 0 0 5 5 0 0. 9.
 -11 -1 0 0 0 0 0 0 -5 5 0 0. 9.
 15 1 1 2 0 0 3.86434 -2.59601 0.41223 5 1.7768 0. 1
 -15 1 1 2 0 0 -3.86434 2.59601 -0.41223 5 1.7768 0. -1
</event>
<event>
 4 80 1 -1 -1 -1
 11 -1 0 0 0 0 0 0 4.47048 4.47048 0 0. 9.
 -11 -1 0 0 0 0 0 0 -5 5 0 0. 9.
 15 1 1 2 0 0 -0.103546 -0.602737 4.08032 4.4923 1.7768 0. -1
 -15 1 1 2 0 0 0.103546 0.602737 -4.60984 4.97818 1.7768 0. 1
</event>
<event>
 4 80 1 -1 -1 -1
 11 -1 0 0 0 0 0 0 5 5 0 0. 9.
 -11 -1 0 0 0 0 0 0 -0.849518 0.849518 0 0. 9.
 15 1 1 2 0 0 0.388492 0.873696 1.48058 2.50282 1.7768 0. 1
 -15 1 1 2 0 0 -0.388492 -0.873696 2.6699 3.3467 1.7768 0. -1
</event>
<event>
 4 80 1 -1 -1 -1
 11 -1 0 0 0 0 0 0 4.9914 4.9914 0 0. 9.
 -11 -1 0 0 0 0 0 0 -5 5 0 0. 9.
 15 1 1 2 0 0 1.35019 4.2588 1.35176 4.99453 1.7768 0. 1
 -15 1 1 2 0 0 -1.35019 -4.2588 -1.36036 4.99687 1.7768 0. -1
</event>
<event>
 4 80 1 -1 -1 -1
 11 -1 0 0 0 0 0 0 5 5 0 0. 9.
 -11 -1 0 0 0 0 0 0 -5 5 0 0. 9.
 15 1 1 2 0 0 1.05771 0.411582 -4.53366 5 1.7768 0. -1
 -15 1 1 2 0 0 -1.05771 -0.411582 4.53366 5 1.7768 0. 1
</event>
<event>
 4 80 1 -1 -1 -1
 11 -1 0 0 0 0 0 0 5 5 0 0. 9.
 -11 -1 0 0 0 0 0 0 -5 5 0 0. 9.
 15 1 1 2 0 0 1.64368 0.0855141 -4.37416 5 1.7768 0. 1
 -15 1 1 2 0 0 -1.64368 -0.0855141 4.37416 5 1.7768 0. -1
</event>
<event>
 4 80 1 -1 -1 -1
 11 -1 0 0 0 0 0 0 2.61018 2.61018 0 0. 9.
 -11 -1 0 0 0 0 0 0 -5 5 0 0. 9.
 15 1 1 2 0 0 1.24941 -0.298709 -4.21893 4.75472 1.7768 0. -1
 -15 1 1 2 0 0 -1.24941 0.298709 1.82912 2.85546 1.7768 0. 1
</event>
<event>
 4 80 1 -1 -1 -1
 11 -1 0 0 0 0 0 0 5 5 0 0. 9.
 -11 -1 0 0 0 0 0 0 -1.86453 1.86453 0 0. 9.
 15 1 1 2 0 0 1.30754 -0.214765 -0.792679 2.35412 1.7768 0. -1
 -15 1 1 2 0 0 -1.30754 0.214765 3.92815 4.51042 1.7768 0. 1
</event>
<event>
 4 80 1 -1 -1 -1
 11 -1 0 0 0 0 0 0 5 5 0 0. 9.
 -11 -1 0 0 0 0 0 0 -5 5 0 0. 9.
 15 1 1 2 0 0 1.4452 2.82883 3.42804 5 1.7768 0. -1
 -15 1 1 2 0 0 -1.4452 -2.82883 -3.42804 5 1.7768 0. 1
</event>
<event>
 4 80 1 -1 -1 -1
 11 -1 0 0 0 0 0 0 4.90186 4.90186 0 0. 9.
 -11 -1 0 0 0 0 0 0 -4.99981 4.99981 0 0. 9.
 15 1 1 2 0 0 2.55782 2.56485 2.81992 4.92245 1.7768 0. 1
 -15 1 1 2 0 0 -2.55782 -2.56485 -2.91787 4.97921 1.7768 0. -1
</event>
<event>
 4 80 1 -1 -1 -1
 11 -1 0 0 0 0 0 0 5 5 0 0. 9.
 -11 -1 0 0 0 0 0 0 -5 5 0 0. 9.
 15 1 1 2 0 0 2.43817 1.82692 -3.544 5 1.7768 0. -1
 -15 1 1 2 0 0 -2.43817 -1.82692 3.544 5 1.7768 0. 1
</event>
<event>
 4 80 1 -1 -1 -1
 11 -1 0 0 0 0 0 0 5 5 0 0. 9.
 -11 -1 0 0 0 0 0 0 -5 5 0 0. 9.
 15 1 1 2 0 0 -1.96083 -1.05209 4.10981 5 1.7768 0. -1
 -15 1 1 2 0 0 1.96083 1.05209 -4.10981 5 1.7768 0. 1
</event>
<event>
 4 80 1 -1 -1 -1
 11 -1 0 0 0 0 0 0 4.98302 4.98302 0 0. 9.
 -11 -1 0 0 0 0 0 0 -4.67625 4.67625 0 0. 9.
 15 1 1 2 0 0 2.42638 -2.85143 -2.32298 4.75099 1.7768 0. -1
 -15 1 1 2 0 0 -2.42638 2.85143 2.62975 4.90829 1.7768 0. 1
</event>
<event>
 4 80 1 -1 -1 -1
 11 -1 0 0 0 0 0 0 5 5 0 0. 9.
 -11 -1 0 0 0 0 0 0 -4.99998 4.99998 0 0. 9.
 15 1 1 2 0 0 -2.27193 3.95144 1.03277 4.99999 1.7768 0. -1
 -15 1 1 2 0 0 2.27193 -3.95144 -1.03274 4.99999 1.7768 0. 1
</event>
<event>
 4 80 1 -1 -1 -1
 11 -1 0 0 0 0 0 0 5 5 0 0. 9.
 -11 -1 0 0 0 0 0 0 -5 5 0 0. 9.
 15 1 1 2 0 0 -2.46144 -0.189506 3.96833 5 1.7768 0. 1
 -15 1 1 2 0 0 2.46144 0.189506 -3.96833 5 1.7768 0. -1
</event>
<event>
 4 80 1 -1 -1 -1
 11 -1 0 0 0 0 0 0 3.05563 3.05563 0 0. 9.
 -11 -1 0 0 0 0 0 0 -5 5 0 0. 9.
 15 1 1 2 0 0 0.10001 -3.43364 -0.388806 3.887 1.7768 0. 1
 -15 1 1 2 0 0 -0.10001 3.43364 -1.55557 4.16862 1.7768 0. -1
</event>
<event>
 4 80 1 -1 -1 -1
 11 -1 0 0 0 0 0 0 4.99728 4.99728 0 0. 9.
 -11 -1 0 0 0 0 0 0 -5 5 0 0. 9.
 15 1 1 2 0 0 -0.831729 0.450506 -4.57672 4.99988 1.7768 0. 1
 -15 1 1 2 0 0 0.831729 -0.450506 4.574 4.99739 1.7768 0. -1
</event>
<event>
 4 80 1 -1 -1 -1
 11 -1 0 0 0 0 0 0 3.6269 3.6269 0 0. 9.
 -11 -1 0 0 0 0 0 0 -5 5 0 0. 9.
 15 1 1 2 0 0 0.756901 3.61668 0.478735 4.12798 1.7768 0. 1
 -15 1 1 2 0 0 -0.756901 -3.61668 -1.85183 4.49892 1.7768 0. -1
</event>
<event>
 4 80 1 -1 -1 -1
 11 -1 0 0 0 0 0 0 5 5 0 0. 9.
 -11 -1 0 0 0 0 0 0 -4.99999 4.99999 0 0. 9.
 15 1 1 2 0 0 -3.57658 2.32154 1.91332 5 1.7768 0. -1
 -15 1 1 2 0 0 3.57658 -2.32154 -1.91331 4.99999 1.7768 0. 1
</event>
<event>
 4 80 1 -1 -1 -1
 11 -1 0 0 0 0 0 0 4.87848 4.87848 0 0. 9.
 -11 -1 0 0 0 0 0 0 -4.98707 4.98707 0 0. 9.
 15 1 1 2 0 0 0.625134 2.543 -3.8379 4.97442 1.7768 0. 1
 -15 1 1 2 0 0 -0.625134 -2.543 3.72931 4.89113 1.7768 0. -1
</event>
<event>
 4 80 1 -1 -1 -1
 11 -1 0 0 0 0 0 0 4.97021 4.97021 0 0. 9.
 -11 -1 0 0 0 0 0 0 -5 5 0 0. 9.
 15 1 1 2 0 0 3.32537 -2.65606 1.87735 4.97945 1.7768 0. -1
 -15 1 1 2 0 0 -3.32537 2.65606 -1.90714 4.99075 1.7768 0. 1
</event>
<event>
 4 80 1 -1 -1 -1
 11 -1 0 0 0 0 0 0 5 5 0 0. 9.
 -11 -1 0 0 0 0 0 0 -5 5 0 0. 9.
 15 1 1 2 0 0 -0.406657 2.51939 3.9153 5 1.7768 0. 1
 -15 1 1 2 0 0 0.406657 -2.51939 -3.9153 5 1.7768 0. -1
</event>
<event>
 4 80 1 -1 -1 -1
 11 -1 0 0 0 0 0 0 5 5 0 0. 9.
 -11 -1 0 0 0 0 0 0 -5 5 0 0. 9.
 15 1 1 2 0 0 -1.35974 1.56251 -4.1895 5 1.7768 0. -1
 -15 1 1 2 0 0 1.35974 -1.56251 4.1895 5 1.7768 0. 1
</event>
<event>
 4 80 1 -1 -1 -1
 11 -1 0 0 0 0 0 0 4.99976 4.99976 0 0. 9.
 -11 -1 0 0 0 0 0 0 -5 5 0 0. 9.
 15 1 1 2 0 0 -1.90883 -2.22625 3.63873 4.99979 1.7768 0. 1
 -15 1 1 2 0 0 1.90883 2.22625 -3.63897 4.99997 1.7768 0. -1
</event>
<event>
 4 80 1 -1 -1 -1
 11 -1 0 0 0 0 0 0 4.98781 4.98781 0 0. 9.
 -11 -1 0 0 0 0 0 0 -5 5 0 0. 9.
 15 1 1 2 0 0 1.11234 -4.21238 -1.67939 4.99595 1.7768 0. 1
 -15 1 1 2 0 0 -1.11234 4.21238 1.66719 4.99186 1.7768 0. -1
</event>
<event>
 4 80 1 -1 -1 -1
 11 -1 0 0 0 0 0 0 4.99999 4.99999 0 0. 9.
 -11 -1 0 0 0 0 0 0 -4.99999 4.99999 0 0. 9.
 15 1 1 2 0 0 -2.39715 -0.18977 4.00747 4.99999 1.7768 0. 1
 -15 1 1 2 0 0 2.39715 0.18977 -4.00747 4.99999 1.7768 0. -1
</event>
<event>
 4 80 1 -1 -1 -1
 11 -1 0 0 0 0 0 0 5 5 0 0. 9.
 -11 -1 0 0 0 0 0 0 -5 5 0 0. 9.
 15 1 1 2 0 0 0.0674755 4.45246 -1.4189 5 1.7768 0. 1
 -15 1 1 2 0 0 -0.0674755 -4.45246 1.4189 5 1.7768 0. -1
</event>
<event>
 4 80 1 -1 -1 -1
 11 -1 0 0 0 0 0 0 3.85236 3.85236 0 0. 9.
 -11 -1 0 0 0 0 0 0 -5 5 0 0. 9.
 15 1 1 2 0 0 -0.0742639 -3.50137 1.40218 4.17001 1.7768 0. -1
 -15 1 1 2 0 0 0.0742639 3.50137 -2.54982 4.68235 1.7768 0. 1
</event>
<event>
 4 80 1 -1 -1 -1
 11 -1 0 0 0 0 0 0 5 5 0 0. 9.
 -11 -1 0 0 0 0 0 0 -5 5 0 0. 9.
 15 1 1 2 0 0 2.23204 -0.679505 -4.04951 5 1.7768 0. 1
 -15 1 1 2 0 0 -2.23204 0.679505 4.04951 5 1.7768 0. -1
</event>
<event>
 4 80 1 -1 -1 -1
 11 -1 0 0 0 0 0 0 4.96683 4.96683 0 0. 9.
 -11 -1 0 0 0 0 0 0 -5 5 0 0. 9.
 15 1 1 2 0 0 1.14364 -3.19188 -3.20727 4.99403 1.7768 0. -1
 -15 1 1 2 0 0 -1.14364 3.19188 3.1741 4.97279 1.7768 0. 1
</event>
<event>
 4 80 1 -1 -1 -1
 11 -1 0 0 0 0 0 0 5 5 0 0. 9.
 -11 -1 0 0 0 0 0 0 -5 5 0 0. 9.
 15 1 1 2 0 0 -1.91877 -1.00037 4.14244 5 1.7768 0. 1
 -15 1 1 2 0 0 1.91877 1.00037 -4.14244 5 1.7768 0. -1
</event>
<event>
 4 80 1 -1 -1 -1
 11 -1 0 0 0 0 0 0 5 5 0 0. 9.
 -11 -1 0 0 0 0 0 0 -5 5 0 0. 9.
 15 1 1 2 0 0 2.66185 1.63459 -3.47634 5 1.7768 0. 1
 -15 1 1 2 0 0 -2.66185 -1.63459 3.47634 5 1.7768 0. -1
</event>
<event>
 4 80 1 -1 -1 -1
 11 -1 0 0 0 0 0 0 5 5 0 0. 9.
 -11 -1 0 0 0 0 0 0 -5 5 0 0. 9.
 15 1 1 2 0 0 -0.660619 -4.40592 -1.41198 5 1.7768 0. 1
 -15 1 1 2 0 0 0.660619 4.40592 1.41198 5 1.7768 0. -1
</event>
<event>
 4 80 1 -1 -1 -1
 11 -1 0 0 0 0 0 0 5 5 0 0. 9.
 -11 -1 0 0 0 0 0 0 -4.99042 4.99042 0 0. 9.
 15 1 1 2 0 0 1.11212 4.39582 -1.10621 4.99415 1.7768 0. 1
 -15 1 1 2 0 0 -1.11212 -4.39582 1.11579 4.99628 1.7768 0. -1
</event>
<event>
 4 80 1 -1 -1 -1
 11 -1 0 0 0 0 0 0 5 5 0 0. 9.
 -11 -1 0 0 0 0 0 0 -4.99487 4.99487 0 0. 9.
 15 1 1 2 0 0 1.09436 4.54071 0.0332891 4.99745 1.7768 0. -1
 -15 1 1 2 0 0 -1.09436 -4.54071 -0.0281548 4.99742 1.7768 0. 1
</event>
<event>
 4 80 1 -1 -1 -1
 11 -1 0 0 0 0 0 0 5 5 0 0. 9.
 -11 -1 0 0 0 0 0 0 -5 5 0 0. 9.
 15 1 1 2 0 0 3.40349 3.19913 0.155129 5 1.7768 0. -1
 -15 1 1 2 0 0 -3.40349 -3.19913 -0.155129 5 1.7768 0. 1
</event>
<event>
 4 80 1 -1 -1 -1
 11 -1 0 0 0 0 0 0 4.99999 4.99999 0 0. 9.
 -11 -1 0 0 0 0 0 0 -5 5 0 0. 9.
 15 1 1 2 0 0 -1.80985 1.4168 -4.06932 5 1.7768 0. 1
 -15 1 1 2 0 0 1.80985 -1.4168 4.06932 4.99999 1.7768 0. -1
</event>
<event>
 4 80 1 -1 -1 -1
 11 -1 0 0 0 0 0 0 4.99942 4.99942 0 0. 9.
 -11 -1 0 0 0 0 0 0 -4.05459 4.05459 0 0. 9.
 15 1 1 2 0 0 2.66233 0.436818 -2.68073 4.19796 1.7768 0. 1
 -15 1 1 2 0 0 -2.66233 -0.436818 3.62556 4.85605 1.7768 0. -1
</event>
<event>
 4 80 1 -1 -1 -1
 11 -1 0 0 0 0 0 0 5 5 0 0. 9.
 -11 -1 0 0 0 0 0 0 -4.56678 4.56678 0 0. 9.
 15 1 1 2 0 0 3.94996 -1.50261 1.56564 4.84448 1.7768 0. 1
 -15 1 1 2 0 0 -3.94996 1.50261 -1.13242 4.7223 1.7768 0. -1
</event>
<event>
 4 80 1 -1 -1 -1
 11 -1 0 0 0 0 0 0 5 5 0 0. 9.
 -11 -1 0 0 0 0 0 0 -4.95827 4.95827 0 0. 9.
 15 1 1 2 0 0 -0.694097 1.48247 4.37454 4.99738 1.7768 0. 1
 -15 1 1 2 0 0 0.694097 -1.48247 -4.33281 4.96089 1.7768 0. -1
</event>
<event>
 4 80 1 -1 -1 -1
 11 -1 0 0 0 0 0 0 4.99996 4.99996 0 0. 9.
 -11 -1 0 0 0 0 0 0 -4.85501 4.85501 0 0. 9.
 15 1 1 2 0 0 -0.336799 2.69622 3.77882 4.982 1.7768 0. 1
 -15 1 1 2 0 0 0.336799 -2.69622 -3.63388 4.87297 1.7768 0. -1
</event>
<event>
 4 80 1 -1 -1 -1
 11 -1 0 0 0 0 0 0 5 5 0 0. 9.
 -11 -1 0 0 0 0 0 0 -4.99097 4.99097 0 0. 9.
 15 1 1 2 0 0 -0.257995 0.0890532 -4.65624 4.99127 1.7768 0. -1
 -15 1 1 2 0 0 0.257995 -0.0890532 4.66527 4.9997 1.7768 0. 1
</event>
<event>
 4 80 1 -1 -1 -1
 11 -1 0 0 0 0 0 0 4.98661 4.98661 0 0. 9.
 -11 -1 0 0 0 0 0 0 -4.99682 4.99682 0 0. 9.
 15 1 1 2 0 0 -4.01898 -2.02597 1.22074 4.99046 1.7768 0. -1
 -15 1 1 2 0 0 4.01898 2.02597 -1.23094 4.99297 1.7768 0. 1
</event>
<event>
 4 80 1 -1 -1 -1
 11 -1 0 0 0 0 0 0 4.99961 4.99961 0 0. 9.
 -11 -1 0 0 0 0 0 0 -4.95856 4.95856 0 0. 9.
 15 1 1 2 0 0 -4.44735 0.487415 -1.25097 4.97384 1.7768 0. 1
 -15 1 1 2 0 0 4.44735 -0.487415 1.29201 4.98432 1.7768 0. -1
</event>
<event>
 4 80 1 -1 -1 -1
 11 -1 0 0 0 0 0 0 2.01315 2.01315 0 0. 9.
 -11 -1 0 0 0 0 0 0 -2.02137 2.02137 0 0. 9.
 15 1 1 2 0 0 -0.000245619 -0.300003 -0.910523 2.0191 1.7768 0. 1
 -15 1 1 2 0 0 0.000245619 0.300003 0.90231 2.01541 1.7768 0. -1
</event>
<event>
 4 80 1 -1 -1 -1
 11 -1 0 0 0 0 0 0 5 5 0 0. 9.
 -11 -1 0 0 0 0 0 0 -5 5 0 0. 9.
 15 1 1 2 0 0 2.48007 -2.50354 3.06983 5 1.7768 0. 1
 -15 1 1 2 0 0 -2.48007 2.50354 -3.06983 5 1.7768 0. -1
</event>
<event>
 4 80 1 -1 -1 -1
 11 -1 0 0 0 0 0 0 5 5 0 0. 9.
 -11 -1 0 0 0 0 0 0 -5 5 0 0. 9.
 15 1 1 2 0 0 3.2788 -2.98277 -1.4815 5 1.7768 0. 1
 -15 1 1 2 0 0 -3.2788 2.98277 1.4815 5 1.7768 0. -1
</event>
<event>
 4 80 1 -1 -1 -1
 11 -1 0 0 0 0 0 0 5 5 0 0. 9.
 -11 -1 0 0 0 0 0 0 -5 5 0 0. 9.
 15 1 1 2 0 0 -1.72231 -3.01059 3.13245 5 1.7768 0. 1
 -15 1 1 2 0 0 1.72231 3.01059 -3.13245 5 1.7768 0. -1
</event>
<event>
 4 80 1 -1 -1 -1
 11 -1 0 0 0 0 0 0 5 5 0 0. 9.
 -11 -1 0 0 0 0 0 0 -4.99856 4.99856 0 0. 9.
 15 1 1 2 0 0 -2.17096 -4.10141 -0.547393 4.9992 1.7768 0. 1
 -15 1 1 2 0 0 2.17096 4.10141 0.548831 4.99936 1.7768 0. -1
</event>
<event>
 4 80 1 -1 -1 -1
 11 -1 0 0 0 0 0 0 4.94231 4.94231 0 0. 9.
 -11 -1 0 0 0 0 0 0 -4.99999 4.99999 0 0. 9.
 15 1 1 2 0 0 -0.859158 -1.09069 4.40136 4.94545 1.7768 0. 1
 -15 1 1 2 0 0 0.859158 1.09069 -4.45904 4.99685 1.7768 0. -1
</event>
<event>
 4 80 1 -1 -1 -1
 11 -1 0 0 0 0 0 0 4.60411 4.60411 0 0. 9.
 -11 -1 0 0 0 0 0 0 -5 5 0 0. 9.
 15 1 1 2 0 0 -1.86401 0.915736 -4.14461 4.96474 1.7768 0. 1
 -15 1 1 2 0 0 1.86401 -0.915736 3.74872 4.63937 1.7768 0. -1
</event>
<event>
 4 80 1 -1 -1 -1
 11 -1 0 0 0 0 0 0 5 5 0 0. 9.
 -11 -1 0 0 0 0 0 0 -4.97422 4.97422 0 0. 9.
 15 1 1 2 0 0 -0.454357 4.2126 -1.92642 4.9821 1.7768 0. 1
 -15 1 1 2 0 0 0.454357 -4.2126 1.9522 4.99212 1.7768 0. -1
</event>
<event>
 4 80 1 -1 -1 -1
 11 -1 0 0 0 0 0 0 5 5 0 0. 9.
 -11 -1 0 0 0 0 0 0 -5 5 0 0. 9.
 15 1 1 2 0 0 4.0585 2.31061 0.178592 5 1.7768 0. 1
 -15 1 1 2 0 0 -4.0585 -2.31061 -0.178592 5 1.7768 0. -1
</event>
<event>
 4 80 1 -1 -1 -1
 11 -1 0 0 0 0 0 0 4.98565 4.98565 0 0. 9.
 -11 -1 0 0 0 0 0 0 -4.99994 4.99994 0 0. 9.
 15 1 1 2 0 0 1.97922 0.118623 -4.23075 4.99884 1.7768 0. -1
 -15 1 1 2 0 0 -1.97922 -0.118623 4.21646 4.98675 1.7768 0. 1
</event>
<event>
 4 80 1 -1 -1 -1
 11 -1 0 0 0 0 0 0 4.99721 4.99721 0 0. 9.
 -11 -1 0 0 0 0 0 0 -4.99998 4.99998 0 0. 9.
 15 1 1 2 0 0 -2.57153 3.58082 -1.5484 4.99903 1.7768 0. 1
 -15 1 1 2 0 0 2.57153 -3.58082 1.54562 4.99817 1.7768 0. -1
</event>
<event>
 4 80 1 -1 -1 -1
 11 -1 0 0 0 0 0 0 4.6966 4.6966 0 0. 9.
 -11 -1 0 0 0 0 0 0 -4.99919 4.99919 0 0. 9.
 15 1 1 2 0 0 -0.236628 -3.24801 2.96726 4.75057 1.7768 0. 1
 -15 1 1 2 0 0 0.236628 3.24801 -3.26985 4.94522 1.7768 0. -1
</event>
<event>
 4 80 1 -1 -1 -1
 11 -1 0 0 0 0 0 0 5 5 0 0. 9.
 -11 -1 0 0 0 0 0 0 -5 5 0 0. 9.
 15 1 1 2 0 0 2.33506 3.96701 -0.807826 5 1.7768 0. 1
 -15 1 1 2 0 0 -2.33506 -3.96701 0.807827 5 1.7768 0. -1
</event>
<event>
 4 80 1 -1 -1 -1
 11 -1 0 0 0 0 0 0 4.16148 4.16148 0 0. 9.
 -11 -1 0 0 0 0 0 0 -5 5 0 0. 9.
 15 1 1 2 0 0 -2.1671 3.57641 -0.824225 4.61781 1.7768 0. 1
 -15 1 1 2 0 0 2.1671 -3.57641 -0.0142914 4.54368 1.7768 0. -1
</event>
<event>
 4 80 1 -1 -1 -1
 11 -1 0 0 0 0 0 0 5 5 0 0. 9.
 -11 -1 0 0 0 0 0 0 -5 5 0 0. 9.
 15 1 1 2 0 0 0.0190649 2.65284 -3.84764 5 1.7768 0. 1
 -15 1 1 2 0 0 -0.0190649 -2.65284 3.84764 5 1.7768 0. -1
</event>
<event>
 4 80 1 -1 -1 -1
 11 -1 0 0 0 0 0 0 5 5 0 0. 9.
 -11 -1 0 0 0 0 0 0 -4.99996 4.99996 0 0. 9.
 15 1 1 2 0 0 -0.261381 4.5444 -1.05933 4.99998 1.7768 0. 1
 -15 1 1 2 0 0 0.261381 -4.5444 1.05937 4.99998 1.7768 0. -1
</event>
<event>
 4 80 1 -1 -1 -1
 11 -1 0 0 0 0 0 0 5 5 0 0. 9.
 -11 -1 0 0 0 0 0 0 -3.4212 3.4212 0 0. 9.
 15 1 1 2 0 0 -1.48557 2.72732 2.90123 4.60652 1.7768 0. -1
 -15 1 1 2 0 0 1.48557 -2.72732 -1.32243 3.81468 1.7768 0. 1
</event>
<event>
 4 80 1 -1 -1 -1
 11 -1 0 0 0 0 0 0 1.77396 1.77396 0 0. 9.
 -11 -1 0 0 0 0 0 0 -5 5 0 0. 9.
 15 1 1 2 0 0 1.43831 1.37578 -0.108341 2.67039 1.7768 0. -1
 -15 1 1 2 0 0 -1.43831 -1.37578 -3.1177 4.10357 1.7768 0. 1
</event>
<event>
 4 80 1 -1 -1 -1
 11 -1 0 0 0 0 0 0 5 5 0 0. 9.
 -11 -1 0 0 0 0 0 0 -5 5 0 0. 9.
 15 1 1 2 0 0 -1.63437 0.538803 4.3452 5 1.7768 0. -1
 -15 1 1 2 0 0 1.63437 -0.538803 -4.3452 5 1.7768 0. 1
</event>
<event>
 4 80 1 -1 -1 -1
 11 -1 0 0 0 0 0 0 5 5 0 0. 9.
 -11 -1 0 0 0 0 0 0 -5 5 0 0. 9.
 15 1 1 2 0 0 -1.88541 2.52158 -3.45386 5 1.7768 0. -1
 -15 1 1 2 0 0 1.88541 -2.52158 3.45386 5 1.7768 0. 1
</event>
<event>
 4 80 1 -1 -1 -1
 11 -1 0 0 0 0 0 0 4.99999 4.99999 0 0. 9.
 -11 -1 0 0 0 0 0 0 -5 5 0 0. 9.
 15 1 1 2 0 0 -4.46187 0.70215 1.20039 5 1.7768 0. 1
 -15 1 1 2 0 0 4.46187 -0.70215 -1.20039 5 1.7768 0. -1
</event>
<event>
 4 80 1 -1 -1 -1
 11 -1 0 0 0 0 0 0 5 5 0 0. 9.
 -11 -1 0 0 0 0 0 0 -5 5 0 0. 9.
 15 1 1 2 0 0 -1.3169 4.47319 -0.31405 5 1.7768 0. 1
 -15 1 1 2 0 0 1.3169 -4.47319 0.31405 5 1.7768 0. -1
</event>
<event>
 4 80 1 -1 -1 -1
 11 -1 0 0 0 0 0 0 4.98275 4.98275 0 0. 9.
 -11 -1 0 0 0 0 0 0 -5 5 0 0. 9.
 15 1 1 2 0 0 1.6081 1.50495 -4.12022 4.99848 1.7768 0. -1
 -15 1 1 2 0 0 -1.6081 -1.50495 4.10297 4.98427 1.7768 0. 1
</event>
<event>
 4 80 1 -1 -1 -1
 11 -1 0 0 0 0 0 0 4.99728 4.99728 0 0. 9.
 -11 -1 0 0 0 0 0 0 -1.39487 1.39487 0 0. 9.
 15 1 1 2 0 0 0.984375 1.33232 0.54971 2.49078 1.7768 0. 1
 -15 1 1 2 0 0 -0.984375 -1.33232 3.05269 3.90138 1.7768 0. -1
</event>
<event>
 4 80 1 -1 -1 -1
 11 -1 0 0 0 0 0 0 5 5 0 0. 9.
 -11 -1 0 0 0 0 0 0 -5 5 0 0. 9.
 15 1 1 2 0 0 -2.59792 -3.10039 2.34108 5 1.7768 0. 1
 -15 1 1 2 0 0 2.59792 3.10039 -2.34108 5 1.7768 0. -1
</event>
<event>
 4 80 1 -1 -1 -1
 11 -1 0 0 0 0 0 0 5 5 0 0. 9.
 -11 -1 0 0 0 0 0 0 -5 5 0 0. 9.
 15 1 1 2 0 0 1.51401 -4.22844 -1.29242 5 1.7768 0. -1
 -15 1 1 2 0 0 -1.51401 4.22844 1.29242 5 1.7768 0. 1
</event>
<event>
 4 80 1 -1 -1 -1
 11 -1 0 0 0 0 0 0 5 5 0 0. 9.
 -11 -1 0 0 0 0 0 0 -4.99661 4.99661 0 0. 9.
 15 1 1 2 0 0 2.12842 0.811866 4.08042 4.99969 1.7768 0. -1
 -15 1 1 2 0 0 -2.12842 -0.811866 -4.07703 4.99692 1.7768 0. 1
</event>
<event>
 4 80 1 -1 -1 -1
 11 -1 0 0 0 0 0 0 5 5 0 0. 9.
 -11 -1 0 0 0 0 0 0 -4.99903 4.99903 0 0. 9.
 15 1 1 2 0 0 -2.41012 0.491814 -3.97278 4.99913 1.7768 0. 1
 -15 1 1 2 0 0 2.41012 -0.491814 3.97375 4.9999 1.7768 0. -1
</event>
<event>
 4 80 1 -1 -1 -1
 11 -1 0 0 0 0 0 0 4.24036 4.24036 0 0. 9.
 -11 -1 0 0 0 0 0 0 -5 5 0 0. 9.
 15 1 1 2 0 0 2.28699 -1.28257 2.9735 4.34451 1.7768 0. 1
 -15 1 1 2 0 0 -2.28699 1.28257 -3.73314 4.89585 1.7768 0. -1
</event>
<event>
 4 80 1 -1 -1 -1
 11 -1 0 0 0 0 0 0 5 5 0 0. 9.
 -11 -1 0 0 0 0 0 0 -4.99217 4.99217 0 0. 9.
 15 1 1 2 0 0 -3.5471 0.0582235 -3.03217 4.99371 1.7768 0. -1
 -15 1 1 2 0 0 3.5471 -0.0582235 3.04 4.99846 1.7768 0. 1
</event>
<event>
 4 80 1 -1 -1 -1
 11 -1 0 0 0 0 0 0 5 5 0 0. 9.
 -11 -1 0 0 0 0 0 0 -5 5 0 0. 9.
 15 1 1 2 0 0 -2.72396 -3.68684 0.910764 5 1.7768 0. -1
 -15 1 1 2 0 0 2.72396 3.68684 -0.910764 5 1.7768 0. 1
</event>
<event>
 4 80 1 -1 -1 -1
 11 -1 0 0 0 0 0 0 5 5 0 0. 9.
 -11 -1 0 0 0 0 0 0 -0.966362 0.966362 0 0. 9.
 15 1 1 2 0 0 0.193953 -0.383075 3.67326 4.10304 1.7768 0. 1
 -15 1 1 2 0 0 -0.193953 0.383075 0.360376 1.86332 1.7768 0. -1
</event>
<event>
 4 80 1 -1 -1 -1
 11 -1 0 0 0 0 0 0 5 5 0 0. 9.
 -11 -1 0 0 0 0 0 0 -5 5 0 0. 9.
 15 1 1 2 0 0 1.61556 -3.90163 -2.00239 5 1.7768 0. -1
 -15 1 1 2 0 0 -1.61556 3.90163 2.00239 5 1.7768 0. 1
</event>
<event>
 4 80 1 -1 -1 -1
 11 -1 0 0 0 0 0 0 4.92271 4.92271 0 0. 9.
 -11 -1 0 0 0 0 0 0 -5 5 0 0. 9.
 15 1 1 2 0 0 3.43189 -0.648767 3.00399 4.93766 1.7768 0. -1
 -15 1 1 2 0 0 -3.43189 0.648767 -3.08128 4.98506 1.7768 0. 1
</event>
<event>
 4 80 1 -1 -1 -1
 11 -1 0 0 0 0 0 0 5 5 0 0. 9.
 -11 -1 0 0 0 0 0 0 -1.62493 1.62493 0 0. 9.
 15 1 1 2 0 0 -0.0408877 1.30261 3.78851 4.38281 1.7768 0. 1
 -15 1 1 2 0 0 0.0408877 -1.30261 -0.413446 2.24212 1.7768 0. -1
</event>
<event>
 4 80 1 -1 -1 -1
 11 -1 0 0 0 0 0 0 4.99999 4.99999 0 0. 9.
 -11 -1 0 0 0 0 0 0 -5 5 0 0. 9.
 15 1 1 2 0 0 -2.47408 -3.67439 1.48995 4.99999 1.7768 0. 1
 -15 1 1 2 0 0 2.47408 3.67439 -1.48996 4.99999 1.7768 0. -1
</event>
<event>
 4 80 1 -1 -1 -1
 11 -1 0 0 0 0 0 0 5 5 0 0. 9.
 -11 -1 0 0 0 0 0 0 -4.93047 4.93047 0 0. 9.
 15 1 1 2 0 0 4.11846 1.80876 -1.08833 4.95737 1.7768 0. 1
 -15 1 1 2 0 0 -4.11846 -1.80876 1.15786 4.9731 1.7768 0. -1
</event>
<event>
 4 80 1 -1 -1 -1
 11 -1 0 0 0 0 0 0 4.06242 4.06242 0 0. 9.
 -11 -1 0 0 0 0 0 0 -5 5 0 0. 9.
 15 1 1 2 0 0 -1.75568 3.69111 0.203856 4.46162 1.7768 0. 1
 -15 1 1 2 0 0 1.75568 -3.69111 -1.14144 4.6008 1.7768 0. -1
</event>
<event>
 4 80 1 -1 -1 -1
 11 -1 0 0 0 0 0 0 5 5 0 0. 9.
 -11 -1 0 0 0 0 0 0 -5 5 0 0. 9.
 15 1 1 2 0 0 -3.27069 3.32371 -0.312789 5 1.7768 0. -1
 -15 1 1 2 0 0 3.27069 -3.32371 0.31279 5 1.7768 0. 1
</event>
<event>
 4 80 1 -1 -1 -1
 11 -1 0 0 0 0 0 0 5 5 0 0. 9.
 -11 -1 0 0 0 0 0 0 -5 5 0 0. 9.
 15 1 1 2 0 0 -4.63965 -0.0630366 0.558551 5 1.7768 0. -1
 -15 1 1 2 0 0 4.63965 0.0630366 -0.558551 5 1.7768 0. 1
</event>
<event>
 4 80 1 -1 -1 -1
 11 -1 0 0 0 0 0 0 5 5 0 0. 9.
 -11 -1 0 0 0 0 0 0 -4.99938 4.99938 0 0. 9.
 15 1 1 2 0 0 2.10952 -0.812946 4.09032 4.99994 1.7768 0. 1
 -15 1 1 2 0 0 -2.10952 0.812946 -4.0897 4.99944 1.7768 0. -1
</event>
<event>
 4 80 1 -1 -1 -1
 11 -1 0 0 0 0 0 0 5 5 0 0. 9.
 -11 -1 0 0 0 0 0 0 -0.747316 0.747316 0 0. 9.
 15 1 1 2 0 0 -0.676401 0.327657 1.95064 2.74365 1.7768 0. -1
 -15 1 1 2 0 0 0.676401 -0.327657 2.30204 3.00367 1.7768 0. 1
</event>
<event>
 4 80 1 -1 -1 -1
 11 -1 0 0 0 0 0 0 4.99997 4.99997 0 0. 9.
 -11 -1 0 0 0 0 0 0 -4.99999 4.99999 0 0. 9.
 15 1 1 2 0 0 -2.8621 3.08099 2.03908 4.99997 1.7768 0. -1
 -15 1 1 2 0 0 2.8621 -3.08099 -2.03911 4.99998 1.7768 0. 1
</event>
<event>
 4 80 1 -1 -1 -1
 11 -1 0 0 0 0 0 0 4.97813 4.97813 0 0. 9.
 -11 -1 0 0 0 0 0 0 -4.99593 4.99593 0 0. 9.
 15 1 1 2 0 0 3.40882 -2.61207 1.79934 4.9838 1.7768 0. 1
 -15 1 1 2 0 0 -3.40882 2.61207 -1.81714 4.99026 1.7768 0. -1
</event>
<event>
 4 80 1 -1 -1 -1
 11 -1 0 0 0 0 0 0 4.99707 4.99707 0 0. 9.
 -11 -1 0 0 0 0 0 0 -5 5 0 0. 9.
 15 1 1 2 0 0 1.21982 -4.35502 -1.17342 4.99888 1.7768 0. 1
 -15 1 1 2 0 0 -1.21982 4.35502 1.1705 4.99819 1.7768 0. -1
</event>
<event>
 4 80 1 -1 -1 -1
 11 -1 0 0 0 0 0 0 5 5 0 0. 9.
 -11 -1 0 0 0 0 0 0 -4.45382 4.45382 0 0. 9.
 15 1 1 2 0 0 -2.37855 0.549771 -3.35949 4.51704 1.7768 0. 1
 -15 1 1 2 0 0 2.37855 -0.549771 3.90567 4.93678 1.7768 0. -1
</event>
<event>
 4 80 1 -1 -1 -1
 11 -1 0 0 0 0 0 0 4.8095 4.8095 0 0. 9.
 -11 -1 0 0 0 0 0 0 -4.99695 4.99695 0 0. 9.
 15 1 1 2 0 0 1.10193 -2.33343 -3.86482 4.97531 1.7768 0. -1
 -15 1 1 2 0 0 -1.10193 2.33343 3.67736 4.83114 1.7768 0. 1
</event>
<event>
 4 80 1 -1 -1 -1
 11 -1 0 0 0 0 0 0 5 5 0 0. 9.
 -11 -1 0 0 0 0 0 0 -3.69703 3.69703 0 0. 9.
 15 1 1 2 0 0 -2.43375 1.97817 -1.71858 3.99344 1.7768 0. -1
 -15 1 1 2 0 0 2.43375 -1.97817 3.02155 4.70359 1.7768 0. 1
</event>
<event>
 4 80 1 -1 -1 -1
 11 -1 0 0 0 0 0 0 5 5 0 0. 9.
 -11 -1 0 0 0 0 0 0 -5 5 0 0. 9.
 15 1 1 2 0 0 4.43277 1.36183 -0.581576 5 1.7768 0. -1
 -15 1 1 2 0 0 -4.43277 -1.36183 0.581576 5 1.7768 0. 1
</event>
<event>
 4 80 1 -1 -1 -1
 11 -1 0 0 0 0 0 0 4.9429 4.9429 0 0. 9.
 -11 -1 0 0 0 0 0 0 -4.98917 4.98917 0 0. 9.
 15 1 1 2 0 0 -0.949837 -4.52217 -0.411742 4.96785 1.7768 0. 1
 -15 1 1 2 0 0 0.949837 4.52217 0.365468 4.96422 1.7768 0. -1
</event>
<event>
 4 80 1 -1 -1 -1
 11 -1 0 0 0 0 0 0 5 5 0 0. 9.
 -11 -1 0 0 0 0 0 0 -5 5 0 0. 9.
 15 1 1 2 0 0 3.03114 -0.893944 3.44315 5 1.7768 0. -1
 -15 1 1 2 0 0 -3.03114 0.893944 -3.44315 5 1.7768 0. 1
</event>
<event>
 4 80 1 -1 -1 -1
 11 -1 0 0 0 0 0 0 4.99996 4.99996 0 0. 9.
 -11 -1 0 0 0 0 0 0 -5 5 0 0. 9.
 15 1 1 2 0 0 3.68904 2.06854 1.98849 4.99997 1.7768 0. 1
 -15 1 1 2 0 0 -3.68904 -2.06854 -1.98853 4.99999 1.7768 0. -1
</event>
<event>
 4 80 1 -1 -1 -1
 11 -1 0 0 0 0 0 0 4.55959 4.55959 0 0. 9.
 -11 -1 0 0 0 0 0 0 -4.51524 4.51524 0 0. 9.
 15 1 1 2 0 0 3.30269 -2.28956 -1.10922 4.53188 1.7768 0. 1
 -15 1 1 2 0 0 -3.30269 2.28956 1.15357 4.54294 1.7768 0. -1
</event>
<event>
 4 80 1 -1 -1 -1
 11 -1 0 0 0 0 0 0 5 5 0 0. 9.
 -11 -1 0 0 0 0 0 0 -4.99967 4.99967 0 0. 9.
 15 1 1 2 0 0 0.345186 3.24136 -3.34873 4.99972 1.7768 0. -1
 -15 1 1 2 0 0 -0.345186 -3.24136 3.34906 4.99995 1.7768 0. 1
</event>
<event>
 4 80 1 -1 -1 -1
 11 -1 0 0 0 0 0 0 5 5 0 0. 9.
 -11 -1 0 0 0 0 0 0 -4.9924 4.9924 0 0. 9.
 15 1 1 2 0 0 -2.20672 2.24042 -3.44805 4.99358 1.7768 0. -1
 -15 1 1 2 0 0 2.20672 -2.24042 3.45564 4.99883 1.7768 0. 1
</event>
<event>
 4 80 1 -1 -1 -1
 11 -1 0 0 0 0 0 0 5 5 0 0. 9.
 -11 -1 0 0 0 0 0 0 -4.99964 4.99964 0 0. 9.
 15 1 1 2 0 0 3.16184 1.71651 -2.98257 4.99971 1.7768 0. -1
 -15 1 1 2 0 0 -3.16184 -1.71651 2.98293 4.99993 1.7768 0. 1
</event>
<event>
 4 80 1 -1 -1 -1
 11 -1 0 0 0 0 0 0 5 5 0 0. 9.
 -11 -1 0 0 0 0 0 0 -5 5 0 0. 9.
 15 1 1 2 0 0 1.0026 -2.94043 3.49155 5 1.7768 0. 1
 -15 1 1 2 0 0 -1.0026 2.94043 -3.49155 5 1.7768 0. -1
</event>
<event>
 4 80 1 -1 -1 -1
 11 -1 0 0 0 0 0 0 5 5 0 0. 9.
 -11 -1 0 0 0 0 0 0 -5 5 0 0. 9.
 15 1 1 2 0 0 -2.79838 -1.66878 3.3506 5 1.7768 0. -1
 -15 1 1 2 0 0 2.79838 1.66878 -3.3506 5 1.7768 0. 1
</event>
<event>
 4 80 1 -1 -1 -1
 11 -1 0 0 0 0 0 0 4.99999 4.99999 0 0. 9.
 -11 -1 0 0 0 0 0 0 -5 5 0 0. 9.
 15 1 1 2 0 0 0.770931 0.392468 4.5928 4.99999 1.7768 0. 1
 -15 1 1 2 0 0 -0.770931 -0.392468 -4.59281 5 1.7768 0. -1
</event>
<event>
 4 80 1 -1 -1 -1
 11 -1 0 0 0 0 0 0 0.885933 0.885933 0 0. 9.
 -11 -1 0 0 0 0 0 0 -5 5 0 0. 9.
 15 1 1 2 0 0 0.840339 -0.313508 -3.01308 3.61121 1.7768 0. -1
 -15 1 1 2 0 0 -0.840339 0.313508 -1.10098 2.27472 1.7768 0. 1
</event>
<event>
 4 80 1 -1 -1 -1
 11 -1 0 0 0 0 0 0 5 5 0 0. 9.
 -11 -1 0 0 0 0 0 0 -5 5 0 0. 9.
 15 1 1 2 0 0 -4.11101 -2.21652 -0.170007 5 1.7768 0. -1
 -15 1 1 2 0 0 4.11101 2.21652 0.170007 5 1.7768 0. 1
</event>
<event>
 4 80 1 -1 -1 -1
 11 -1 0 0 0 0 0 0 4.99094 4.99094 0 0. 9.
 -11 -1 0 0 0 0 0 0 -5 5 0 0. 9.
 15 1 1 2 0 0 -3.66289 -1.73333 2.31404 4.99336 1.7768 0. 1
 -15 1 1 2 0 0 3.66289 1.73333 -2.32311 4.99757 1.7768 0. -1
</event>
<event>
 4 80 1 -1 -1 -1
 11 -1 0 0 0 0 0 0 4.99838 4.99838 0 0. 9.
 -11 -1 0 0 0 0 0 0 -4.99882 4.99882 0 0. 9.
 15 1 1 2 0 0 -1.41039 0.499247 4.42582 4.99841 1.7768 0. -1
 -15 1 1 2 0 0 1.41039 -0.499247 -4.42626 4.99879 1.7768 0. 1
</event>
<event>
 4 80 1 -1 -1 -1
 11 -1 0 0 0 0 0 0 4.98144 4.98144 0 0. 9.
 -11 -1 0 0 0 0 0 0 -5 5 0 0. 9.
 15 1 1 2 0 0 1.33706 -1.15186 4.30755 4.98269 1.7768 0. -1
 -15 1 1 2 0 0 -1.33706 1.15186 -4.32611 4.99875 1.7768 0. 1
</event>
<event>
 4 80 1 -1 -1 -1
 11 -1 0 0 0 0 0 0 4.99979 4.99979 0 0. 9.
 -11 -1 0 0 0 0 0 0 -3.62534 3.62534 0 0. 9.
 15 1 1 2 0 0 -0.549199 3.25157 2.73674 4.63916 1.7768 0. -1
 -15 1 1 2 0 0 0.549199 -3.25157 -1.36229 3.98597 1.7768 0. 1
</event>
<event>
 4 80 1 -1 -1 -1
 11 -1 0 0 0 0 0 0 5 5 0 0. 9.
 -11 -1 0 0 0 0 0 0 -4.946 4.946 0 0. 9.
 15 1 1 2 0 0 -0.56723 1.10716 -4.44797 4.94871 1.7768 0. 1
 -15 1 1 2 0 0 0.56723 -1.10716 4.50196 4.9973 1.7768 0. -1
</event>
<event>
 4 80 1 -1 -1 -1
 11 -1 0 0 0 0 0 0 5 5 0 0. 9.
 -11 -1 0 0 0 0 0 0 -4.98916 4.98916 0 0. 9.
 15 1 1 2 0 0 -2.41617 -2.82417 2.82929 4.99764 1.7768 0. 1
 -15 1 1 2 0 0 2.41617 2.82417 -2.81845 4.99152 1.7768 0. -1
</event>
<event>
 4 80 1 -1 -1 -1
 11 -1 0 0 0 0 0 0 1.11667 1.11667 0 0. 9.
 -11 -1 0 0 0 0 0 0 -5 5 0 0. 9.
 15 1 1 2 0 0 -1.46924 0.51533 -1.89326 3.0276 1.7768 0. -1
 -15 1 1 2 0 0 1.46924 -0.51533 -1.99007 3.08907 1.7768 0. 1
</event>
<event>
 4 80 1 -1 -1 -1
 11 -1 0 0 0 0 0 0 5 5 0 0. 9.
 -11 -1 0 0 0 0 0 0 -5 5 0 0. 9.
 15 1 1 2 0 0 1.13864 -2.21871 3.95261 5 1.7768 0. 1
 -15 1 1 2 0 0 -1.13864 2.21871 -3.95261 5 1.7768 0. -1
</event>
<event>
 4 80 1 -1 -1 -1
 11 -1 0 0 0 0 0 0 5 5 0 0. 9.
 -11 -1 0 0 0 0 0 0 -4.99986 4.99986 0 0. 9.
 15 1 1 2 0 0 2.25175 1.23944 3.90327 4.99999 1.7768 0. -1
 -15 1 1 2 0 0 -2.25175 -1.23944 -3.90314 4.99988 1.7768 0. 1
</event>
<event>
 4 80 1 -1 -1 -1
 11 -1 0 0 0 0 0 0 1.19523 1.19523 0 0. 9.
 -11 -1 0 0 0 0 0 0 -5 5 0 0. 9.
 15 1 1 2 0 0 1.37543 -0.952116 -1.72273 2.98728 1.7768 0. 1
 -15 1 1 2 0 0 -1.37543 0.952116 -2.08204 3.20795 1.7768 0. -1
</event>
<event>
 4 80 1 -1 -1 -1
 11 -1 0 0 0 0 0 0 4.99947 4.99947 0 0. 9.
 -11 -1 0 0 0 0 0 0 -5 5 0 0. 9.
 15 1 1 2 0 0 3.92029 -0.596558 2.4726 4.9996 1.7768 0. 1
 -15 1 1 2 0 0 -3.92029 0.596558 -2.47313 4.99987 1.7768 0. -1
</event>
<event>
 4 80 1 -1 -1 -1
 11 -1 0 0 0 0 0 0 4.99999 4.99999 0 0. 9.
 -11 -1 0 0 0 0 0 0 -5 5 0 0. 9.
 15 1 1 2 0 0 -3.32694 0.49703 -3.24448 5 1.7768 0. -1
 -15 1 1 2 0 0 3.32694 -0.49703 3.24448 4.99999 1.7768 0. 1
</event>
<event>
 4 80 1 -1 -1 -1
 11 -1 0 0 0 0 0 0 4.58978 4.58978 0 0. 9.
 -11 -1 0 0 0 0 0 0 -4.99836 4.99836 0 0. 9.
 15 1 1 2 0 0 1.10301 1.87974 3.67655 4.62869 1.7768 0. -1
 -15 1 1 2 0 0 -1.10301 -1.87974 -4.08513 4.95944 1.7768 0. 1
</event>
<event>
 4 80 1 -1 -1 -1
 11 -1 0 0 0 0 0 0 4.99991 4.99991 0 0. 9.
 -11 -1 0 0 0 0 0 0 -1.23058 1.23058 0 0. 9.
 15 1 1 2 0 0 0.519756 0.670091 -0.00999282 1.96901 1.7768 0. 1
 -15 1 1 2 0 0 -0.519756 -0.670091 3.77933 4.26148 1.7768 0. -1
</event>
<event>
 4 80 1 -1 -1 -1
 11 -1 0 0 0 0 0 0 5 5 0 0. 9.
 -11 -1 0 0 0 0 0 0 -4.99991 4.99991 0 0. 9.
 15 1 1 2 0 0 -4.19294 -0.967478 1.82352 4.99997 1.7768 0. -1
 -15 1 1 2 0 0 4.19294 0.967478 -1.82343 4.99994 1.7768 0. 1
</event>
<event>
 4 80 1 -1 -1 -1
 11 -1 0 0 0 0 0 0 5 5 0 0. 9.
 -11 -1 0 0 0 0 0 0 -5 5 0 0. 9.
 15 1 1 2 0 0 -2.74402 3.7824 0.0781567 5 1.7768 0. 1
 -15 1 1 2 0 0 2.74402 -3.7824 -0.0781567 5 1.7768 0. -1
</event>
<event>
 4 80 1 -1 -1 -1
 11 -1 0 0 0 0 0 0 5 5 0 0. 9.
 -11 -1 0 0 0 0 0 0 -4.99895 4.99895 0 0. 9.
 15 1 1 2 0 0 3.27482 2.13166 -2.5624 4.9992 1.7768 0. 1
 -15 1 1 2 0 0 -3.27482 -2.13166 2.56345 4.99974 1.7768 0. -1
</event>
<event>
 4 80 1 -1 -1 -1
 11 -1 0 0 0 0 0 0 5 5 0 0. 9.
 -11 -1 0 0 0 0 0 0 -5 5 0 0. 9.
 15 1 1 2 0 0 1.57589 -4.35191 -0.647848 5 1.7768 0. -1
 -15 1 1 2 0 0 -1.57589 4.35191 0.647848 5 1.7768 0. 1
</event>
<event>
 4 80 1 -1 -1 -1
 11 -1 0 0 0 0 0 0 4.99526 4.99526 0 0. 9.
 -11 -1 0 0 0 0 0 0 -5 5 0 0. 9.
 15 1 1 2 0 0 2.33392 -2.39093 -3.26655 4.99917 1.7768 0. -1
 -15 1 1 2 0 0 -2.33392 2.39093 3.26181 4.99608 1.7768 0. 1
</event>
<event>
 4 80 1 -1 -1 -1
 11 -1 0 0 0 0 0 0 5 5 0 0. 9.
 -11 -1 0 0 0 0 0 0 -5 5 0 0. 9.
 15 1 1 2 0 0 2.50136 1.44741 3.67294 5 1.7768 0. -1
 -15 1 1 2 0 0 -2.50136 -1.44741 -3.67294 5 1.7768 0. 1
</event>
<event>
 4 80 1 -1 -1 -1
 11 -1 0 0 0 0 0 0 4.99866 4.99866 0 0. 9.
 -11 -1 0 0 0 0 0 0 -4.99999 4.99999 0 0. 9.
 15 1 1 2 0 0 0.618344 3.8466 2.57943 4.99898 1.7768 0. -1
 -15 1 1 2 0 0 -0.618344 -3.8466 -2.58075 4.99967 1.7768 0. 1
</event>
<event>
 4 80 1 -1 -1 -1
 11 -1 0 0 0 0 0 0 5 5 0 0. 9.
 -11 -1 0 0 0 0 0 0 -5 5 0 0. 9.
 15 1 1 2 0 0 2.12508 -0.211222 4.15713 5 1.7768 0. 1
 -15 1 1 2 0 0 -2.12508 0.211222 -4.15713 5 1.7768 0. -1
</event>
<event>
 4 80 1 -1 -1 -1
 11 -1 0 0 0 0 0 0 5 5 0 0. 9.
 -11 -1 0 0 0 0 0 0 -4.99982 4.99982 0 0. 9.
 15 1 1 2 0 0 -0.887929 3.9764 2.28946 4.99995 1.7768 0. 1
 -15 1 1 2 0 0 0.887929 -3.9764 -2.28927 4.99987 1.7768 0. -1
</event>
<event>
 4 80 1 -1 -1 -1
 11 -1 0 0 0 0 0 0 4.99911 4.99911 0 0. 9.
 -11 -1 0 0 0 0 0 0 -3.50134 3.50134 0 0. 9.
 15 1 1 2 0 0 2.40393 2.10347 2.81652 4.61454 1.7768 0. -1
 -15 1 1 2 0 0 -2.40393 -2.10347 -1.31875 3.88591 1.7768 0. 1
</event>
<event>
 4 80 1 -1 -1 -1
 11 -1 0 0 0 0 0 0 4.9384 4.9384 0 0. 9.
 -11 -1 0 0 0 0 0 0 -4.7979 4.7979 0 0. 9.
 15 1 1 2 0 0 -3.28879 -3.08372 0.529417 4.87477 1.7768 0. 1
 -15 1 1 2 0 0 3.28879 3.08372 -0.388919 4.86152 1.7768 0. -1
</event>
<event>
 4 80 1 -1 -1 -1
 11 -1 0 0 0 0 0 0 4.99892 4.99892 0 0. 9.
 -11 -1 0 0 0 0 0 0 -4.99903 4.99903 0 0. 9.
 15 1 1 2 0 0 4.56988 -0.298248 -0.926982 4.99898 1.7768 0. -1
 -15 1 1 2 0 0 -4.56988 0.298248 0.926872 4.99896 1.7768 0. 1
</event>
<event>
 4 80 1 -1 -1 -1
 11 -1 0 0 0 0 0 0 4.1663 4.1663 0 0. 9.
 -11 -1 0 0 0 0 0 0 -4.99999 4.99999 0 0. 9.
 15 1 1 2 0 0 -3.3544 -0.411787 2.094 4.35478 1.7768 0. -1
 -15 1 1 2 0 0 3.3544 0.411787 -2.92769 4.81151 1.7768 0. 1
</event>
<event>
 4 80 1 -1 -1 -1
 11 -1 0 0 0 0 0 0 5 5 0 0. 9.
 -11 -1 0 0 0 0 0 0 -5 5 0 0. 9.
 15 1 1 2 0 0 2.30545 -2.70845 3.03174 5 1.7768 0. 1
 -15 1 1 2 0 0 -2.30545 2.70845 -3.03174 5 1.7768 0. -1
</event>
<event>
 4 80 1 -1 -1 -1
 11 -1 0 0 0 0 0 0 5 5 0 0. 9.
 -11 -1 0 0 0 0 0 0 -4.99898 4.99898 0 0. 9.
 15 1 1 2 0 0 -0.878878 1.9483 -4.15508 4.99907 1.7768 0. -1
 -15 1 1 2 0 0 0.878878 -1.9483 4.15609 4.99991 1.7768 0. 1
</event>
<event>
 4 80 1 -1 -1 -1
 11 -1 0 0 0 0 0 0 4.99989 4.99989 0 0. 9.
 -11 -1 0 0 0 0 0 0 -4.84944 4.84944 0 0. 9.
 15 1 1 2 0 0 4.51357 0.742359 -0.331681 4.91845 1.7768 0. -1
 -15 1 1 2 0 0 -4.51357 -0.742359 0.482122 4.93088 1.7768 0. 1
</event>
<event>
 4 80 1 -1 -1 -1
 11 -1 0 0 0 0 0 0 3.97052 3.97052 0 0. 9.
 -11 -1 0 0 0 0 0 0 -4.97668 4.97668 0 0. 9.
 15 1 1 2 0 0 1.93083 2.00771 -3.49582 4.81015 1.7768 0. -1
 -15 1 1 2 0 0 -1.93083 -2.00771 2.48966 4.13705 1.7768 0. 1
</event>
<event>
 4 80 1 -1 -1 -1
 11 -1 0 0 0 0 0 0 5 5 0 0. 9.
 -11 -1 0 0 0 0 0 0 -4.97253 4.97253 0 0. 9.
 15 1 1 2 0 0 -0.930576 0.475207 -4.52645 4.97376 1.7768 0. 1
 -15 1 1 2 0 0 0.930576 -0.475207 4.55392 4.99877 1.7768 0. -1
</event>
<event>
 4 80 1 -1 -1 -1
 11 -1 0 0 0 0 0 0 5 5 0 0. 9.
 -11 -1 0 0 0 0 0 0 -5 5 0 0. 9.
 15 1 1 2 0 0 0.926859 -1.22975 4.41259 5 1.7768 0. 1
 -15 1 1 2 0 0 -0.926859 1.22975 -4.41259 5 1.7768 0. -1
</event>
<event>
 4 80 1 -1 -1 -1
 11 -1 0 0 0 0 0 0 5 5 0 0. 9.
 -11 -1 0 0 0 0 0 0 -5 5 0 0. 9.
 15 1 1 2 0 0 2.44965 0.388829 3.9611 5 1.7768 0. 1
 -15 1 1 2 0 0 -2.44965 -0.388829 -3.9611 5 1.7768 0. -1
</event>
<event>
 4 80 1 -1 -1 -1
 11 -1 0 0 0 0 0 0 4.99998 4.99998 0 0. 9.
 -11 -1 0 0 0 0 0 0 -5 5 0 0. 9.
 15 1 1 2 0 0 -1.85408 -3.9935 -1.56734 4.99999 1.7768 0. -1
 -15 1 1 2 0 0 1.85408 3.9935 1.56732 4.99999 1.7768 0. 1
</event>
<event>
 4 80 1 -1 -1 -1
 11 -1 0 0 0 0 0 0 4.99999 4.99999 0 0. 9.
 -11 -1 0 0 0 0 0 0 -5 5 0 0. 9.
 15 1 1 2 0 0 -1.08195 -2.71644 -3.6459 5 1.7768 0. 1
 -15 1 1 2 0 0 1.08195 2.71644 3.64589 4.99999 1.7768 0. -1
</event>
<event>
 4 80 1 -1 -1 -1
 11 -1 0 0 0 0 0 0 2.71037 2.71037 0 0. 9.
 -11 -1 0 0 0 0 0 0 -5 5 0 0. 9.
 15 1 1 2 0 0 0.0458136 -0.391709 2.20612 2.86011 1.7768 0. 1
 -15 1 1 2 0 0 -0.0458136 0.391709 -4.49575 4.85026 1.7768 0. -1
</event>
<event>
 4 80 1 -1 -1 -1
 11 -1 0 0 0 0 0 0 4.9877 4.9877 0 0. 9.
 -11 -1 0 0 0 0 0 0 -5 5 0 0. 9.
 15 1 1 2 0 0 -0.548258 2.45517 3.9248 4.98901 1.7768 0. -1
 -15 1 1 2 0 0 0.548258 -2.45517 -3.9371 4.99869 1.7768 0. 1
</event>
<event>
 4 80 1 -1 -1 -1
 11 -1 0 0 0 0 0 0 5 5 0 0. 9.
 -11 -1 0 0 0 0 0 0 -4.99981 4.99981 0 0. 9.
 15 1 1 2 0 0 2.49253 -1.88196 3.47671 4.99997 1.7768 0. 1
 -15 1 1 2 0 0 -2.49253 1.88196 -3.47652 4.99984 1.7768 0. -1
</event>
<event>
 4 80 1 -1 -1 -1
 11 -1 0 0 0 0 0 0 5 5 0 0. 9.
 -11 -1 0 0 0 0 0 0 -5 5 0 0. 9.
 15 1 1 2 0 0 -0.0882832 0.914334 4.58241 5 1.7768 0. -1
 -15 1 1 2 0 0 0.0882832 -0.914334 -4.58241 5 1.7768 0. 1
</event>
<event>
 4 80 1 -1 -1 -1
 11 -1 0 0 0 0 0 0 5 5 0 0. 9.
 -11 -1 0 0 0 0 0 0 -4.99996 4.99996 0 0. 9.
 15 1 1 2 0 0 -3.98455 -2.28913 0.851702 4.99998 1.7768 0. -1
 -15 1 1 2 0 0 3.98455 2.28913 -0.851665 4.99998 1.7768 0. 1
</event>
<event>
 4 80 1 -1 -1 -1
 11 -1 0 0 0 0 0 0 4.99998 4.99998 0 0. 9.
 -11 -1 0 0 0 0 0 0 -5 5 0 0. 9.
 15 1 1 2 0 0 2.27734 -1.18925 3.90404 4.99999 1.7768 0. 1
 -15 1 1 2 0 0 -2.27734 1.18925 -3.90405 5 1.7768 0. -1
</event>
<event>
 4 80 1 -1 -1 -1
 11 -1 0 0 0 0 0 0 5 5 0 0. 9.
 -11 -1 0 0 0 0 0 0 -5 5 0 0. 9.
 15 1 1 2 0 0 1.58385 1.36341 -4.18029 5 1.7768 0. -1
 -15 1 1 2 0 0 -1.58385 -1.36341 4.18029 5 1.7768 0. 1
</event>
<event>
 4 80 1 -1 -1 -1
 11 -1 0 0 0 0 0 0 5 5 0 0. 9.
 -11 -1 0 0 0 0 0 0 -4.37476 4.37476 0 0. 9.
 15 1 1 2 0 0 4.02466 -0.85411 -1.02778 4.59798 1.7768 0. 1
 -15 1 1 2 0 0 -4.02466 0.85411 1.65302 4.77677 1.7768 0. -1
</event>
<event>
 4 80 1 -1 -1 -1
 11 -1 0 0 0 0 0 0 4.99939 4.99939 0 0. 9.
 -11 -1 0 0 0 0 0 0 -5 5 0 0. 9.
 15 1 1 2 0 0 4.10492 0.826796 -2.07522 4.99982 1.7768 0. 1
 -15 1 1 2 0 0 -4.10492 -0.826796 2.07461 4.99957 1.7768 0. -1
</event>
<event>
 4 80 1 -1 -1 -1
 11 -1 0 0 0 0 0 0 5 5 0 0. 9.
 -11 -1 0 0 0 0 0 0 -5 5 0 0. 9.
 15 1 1 2 0 0 2.41459 -0.170604 3.99786 5 1.7768 0. 1
 -15 1 1 2 0 0 -2.41459 0.170604 -3.99786 5 1.7768 0. -1
</event>
<event>
 4 80 1 -1 -1 -1
 11 -1 0 0 0 0 0 0 5 5 0 0. 9.
 -11 -1 0 0 0 0 0 0 -4.61362 4.61362 0 0. 9.
 15 1 1 2 0 0 0.541166 2.06998 -3.72567 4.6493 1.7768 0. -1
 -15 1 1 2 0 0 -0.541166 -2.06998 4.11205 4.96431 1.7768 0. 1
</event>
<event>
 4 80 1 -1 -1 -1
 11 -1 0 0 0 0 0 0 4.93307 4.93307 0 0. 9.
 -11 -1 0 0 0 0 0 0 -4.99966 4.99966 0 0. 9.
 15 1 1 2 0 0 -3.17797 -2.02393 2.6705 4.94824 1.7768 0. -1
 -15 1 1 2 0 0 3.17797 2.02393 -2.73709 4.98449 1.7768 0. 1
</event>
<event>
 4 80 1 -1 -1 -1
 11 -1 0 0 0 0 0 0 5 5 0 0. 9.
 -11 -1 0 0 0 0 0 0 -4.99996 4.99996 0 0. 9.
 15 1 1 2 0 0 3.80077 -1.58625 -2.20906 4.99997 1.7768 0. -1
 -15 1 1 2 0 0 -3.80077 1.58625 2.2091 4.99999 1.7768 0. 1
</event>
<event>
 4 80 1 -1 -1 -1
 11 -1 0 0 0 0 0 0 4.99981 4.99981 0 0. 9.
 -11 -1 0 0 0 0 0 0 -4.99999 4.99999 0 0. 9.
 15 1 1 2 0 0 -1.14668 -0.500333 4.50281 4.99982 1.7768 0. -1
 -15 1 1 2 0 0 1.14668 0.500333 -4.50298 4.99998 1.7768 0. 1
</event>
<event>
 4 80 1 -1 -1 -1
 11 -1 0 0 0 0 0 0 5 5 0 0. 9.
 -11 -1 0 0 0 0 0 0 -5 5 0 0. 9.
 15 1 1 2 0 0 -0.458868 0.913611 -4.56038 5 1.7768 0. 1
 -15 1 1 2 0 0 0.458868 -0.913611 4.56038 5 1.7768 0. -1
</event>
<event>
 4 80 1 -1 -1 -1
 11 -1 0 0 0 0 0 0 1.12012 1.12012 0 0. 9.
 -11 -1 0 0 0 0 0 0 -5 5 0 0. 9.
 15 1 1 2 0 0 -1.27217 -0.633308 -1.0986 2.52669 1.7768 0. -1
 -15 1 1 2 0 0 1.27217 0.633308 -2.78128 3.59343 1.7768 0. 1
</event>
<event>
 4 80 1 -1 -1 -1
 11 -1 0 0 0 0 0 0 5 5 0 0. 9.
 -11 -1 0 0 0 0 0 0 -4.99966 4.99966 0 0. 9.
 15 1 1 2 0 0 0.103361 0.264553 -4.66458 4.99967 1.7768 0. 1
 -15 1 1 2 0 0 -0.103361 -0.264553 4.66492 4.99999 1.7768 0. -1
</event>
<event>
 4 80 1 -1 -1 -1
 11 -1 0 0 0 0 0 0 5 5 0 0. 9.
 -11 -1 0 0 0 0 0 0 -4.99979 4.99979 0 0. 9.
 15 1 1 2 0 0 -2.25519 3.45339 2.19771 4.99994 1.7768 0. 1
 -15 1 1 2 0 0 2.25519 -3.45339 -2.1975 4.99985 1.7768 0. -1
</event>
<event>
 4 80 1 -1 -1 -1
 11 -1 0 0 0 0 0 0 5 5 0 0. 9.
 -11 -1 0 0 0 0 0 0 -5 5 0 0. 9.
 15 1 1 2 0 0 -1.36016 -1.14332 4.32262 5 1.7768 0. -1
 -15 1 1 2 0 0 1.36016 1.14332 -4.32262 5 1.7768 0. 1
</event>
<event>
 4 80 1 -1 -1 -1
 11 -1 0 0 0 0 0 0 5 5 0 0. 9.
 -11 -1 0 0 0 0 0 0 -4.99998 4.99998 0 0. 9.
 15 1 1 2 0 0 0.794216 -3.9699 -2.33479 4.99998 1.7768 0. 1
 -15 1 1 2 0 0 -0.794216 3.9699 2.33481 4.99999 1.7768 0. -1
</event>
<event>
 4 80 1 -1 -1 -1
 11 -1 0 0 0 0 0 0 5 5 0 0. 9.
 -11 -1 0 0 0 0 0 0 -5 5 0 0. 9.
 15 1 1 2 0 0 2.33064 1.46877 3.77533 5 1.7768 0. -1
 -15 1 1 2 0 0 -2.33064 -1.46877 -3.77533 5 1.7768 0. 1
</event>
<event>
 4 80 1 -1 -1 -1
 11 -1 0 0 0 0 0 0 5 5 0 0. 9.
 -11 -1 0 0 0 0 0 0 -4.99921 4.99921 0 0. 9.
 15 1 1 2 0 0 1.70499 4.32779 0.449341 4.99964 1.7768 0. 1
 -15 1 1 2 0 0 -1.70499 -4.32779 -0.448546 4.99957 1.7768 0. -1
</event>
<event>
 4 80 1 -1 -1 -1
 11 -1 0 0 0 0 0 0 5 5 0 0. 9.
 -11 -1 0 0 0 0 0 0 -4.99958 4.99958 0 0. 9.
 15 1 1 2 0 0 -0.937594 -0.44066 4.55728 4.99998 1.7768 0. 1
 -15 1 1 2 0 0 0.937594 0.44066 -4.55686 4.9996 1.7768 0. -1
</event>
<event>
 4 80 1 -1 -1 -1
 11 -1 0 0 0 0 0 0 5 5 0 0. 9.
 -11 -1 0 0 0 0 0 0 -5 5 0 0. 9.
 15 1 1 2 0 0 0.691698 0.411826 -4.60372 5 1.7768 0. 1
 -15 1 1 2 0 0 -0.691698 -0.411826 4.60372 5 1.7768 0. -1
</event>
<event>
 4 80 1 -1 -1 -1
 11 -1 0 0 0 0 0 0 5 5 0 0. 9.
 -11 -1 0 0 0 0 0 0 -4.52503 4.52503 0 0. 9.
 15 1 1 2 0 0 1.94816 -2.82483 -2.53948 4.62404 1.7768 0. 1
 -15 1 1 2 0 0 -1.94816 2.82483 3.01446 4.90099 1.7768 0. -1
</event>
<event>
 4 80 1 -1 -1 -1
 11 -1 0 0 0 0 0 0 4.04333 4.04333 0 0. 9.
 -11 -1 0 0 0 0 0 0 -5 5 0 0. 9.
 15 1 1 2 0 0 3.01227 2.07227 -2.41034 4.72605 1.7768 0. 1
 -15 1 1 2 0 0 -3.01227 -2.07227 1.45366 4.31728 1.7768 0. -1
</event>
<event>
 4 80 1 -1 -1 -1
 11 -1 0 0 0 0 0 0 4.9982 4.9982 0 0. 9.
 -11 -1 0 0 0 0 0 0 -4.79017 4.79017 0 0. 9.
 15 1 1 2 0 0 -1.36081 1.31273 4.25338 4.98237 1.7768 0. 1
 -15 1 1 2 0 0 1.36081 -1.31273 -4.04535 4.806 1.7768 0. -1
</event>
<event>
 4 80 1 -1 -1 -1
 11 -1 0 0 0 0 0 0 5 5 0 0. 9.
 -11 -1 0 0 0 0 0 0 -1.62566 1.62566 0 0. 9.
 15 1 1 2 0 0 -0.50725 -1.92453 2.85463 3.9074 1.7768 0. 1
 -15 1 1 2 0 0 0.50725 1.92453 0.519714 2.71826 1.7768 0. -1
</event>
<event>
 4 80 1 -1 -1 -1
 11 -1 0 0 0 0 0 0 5 5 0 0. 9.
 -11 -1 0 0 0 0 0 0 -5 5 0 0. 9.
 15 1 1 2 0 0 -3.26281 -0.347561 3.32799 5 1.7768 0. -1
 -15 1 1 2 0 0 3.26281 0.347561 -3.32799 5 1.7768 0. 1
</event>
<event>
 4 80 1 -1 -1 -1
 11 -1 0 0 0 0 0 0 4.95941 4.95941 0 0. 9.
 -11 -1 0 0 0 0 0 0 -4.99996 4.99996 0 0. 9.
 15 1 1 2 0 0 -2.65611 0.00128175 3.79868 4.96413 1.7768 0. -1
 -15 1 1 2 0 0 2.65611 -0.00128175 -3.83923 4.99523 1.7768 0. 1
</event>
<event>
 4 80 1 -1 -1 -1
 11 -1 0 0 0 0 0 0 1.84967 1.84967 0 0. 9.
 -11 -1 0 0 0 0 0 0 -4.9292 4.9292 0 0. 9.
 15 1 1 2 0 0 0.540233 0.638455 1.03473 2.21988 1.7768 0. -1
 -15 1 1 2 0 0 -0.540233 -0.638455 -4.11426 4.55898 1.7768 0. 1
</event>
<event>
 4 80 1 -1 -1 -1
 11 -1 0 0 0 0 0 0 5 5 0 0. 9.
 -11 -1 0 0 0 0 0 0 -5 5 0 0. 9.
 15 1 1 2 0 0 -4.15166 0.511785 2.08423 5 1.7768 0. -1
 -15 1 1 2 0 0 4.15166 -0.511785 -2.08423 5 1.7768 0. 1
</event>
<event>
 4 80 1 -1 -1 -1
 11 -1 0 0 0 0 0 0 4.99999 4.99999 0 0. 9.
 -11 -1 0 0 0 0 0 0 -5 5 0 0. 9.
 15 1 1 2 0 0 -3.7942 -1.34829 -2.37242 5 1.7768 0. 1
 -15 1 1 2 0 0 3.7942 1.34829 2.37242 4.99999 1.7768 0. -1
</event>
<event>
 4 80 1 -1 -1 -1
 11 -1 0 0 0 0 0 0 5 5 0 0. 9.
 -11 -1 0 0 0 0 0 0 -4.57891 4.57891 0 0. 9.
 15 1 1 2 0 0 2.42723 -1.17621 -3.32301 4.63412 1.7768 0. 1
 -15 1 1 2 0 0 -2.42723 1.17621 3.7441 4.94479 1.7768 0. -1
</event>
<event>
 4 80 1 -1 -1 -1
 11 -1 0 0 0 0 0 0 4.81926 4.81926 0 0. 9.
 -11 -1 0 0 0 0 0 0 -5 5 0 0. 9.
 15 1 1 2 0 0 -2.00627 0.429228 -4.1812 4.98493 1.7768 0. -1
 -15 1 1 2 0 0 2.00627 -0.429228 4.00046 4.83433 1.7768 0. 1
</event>
<event>
 4 80 1 -1 -1 -1
 11 -1 0 0 0 0 0 0 4.99994 4.99994 0 0. 9.
 -11 -1 0 0 0 0 0 0 -5 5 0 0. 9.
 15 1 1 2 0 0 0.941578 -3.30742 -3.1649 4.99999 1.7768 0. 1
 -15 1 1 2 0 0 -0.941578 3.30742 3.16484 4.99995 1.7768 0. -1
</event>
<event>
 4 80 1 -1 -1 -1
 11 -1 0 0 0 0 0 0 4.62029 4.62029 0 0. 9.
 -11 -1 0 0 0 0 0 0 -5 5 0 0. 9.
 15 1 1 2 0 0 -2.7876 -3.48671 -0.0636985 4.80517 1.7768 0. -1
 -15 1 1 2 0 0 2.7876 3.48671 -0.316008 4.81513 1.7768 0. 1
</event>
<event>
 4 80 1 -1 -1 -1
 11 -1 0 0 0 0 0 0 5 5 0 0. 9.
 -11 -1 0 0 0 0 0 0 -4.99762 4.99762 0 0. 9.
 15 1 1 2 0 0 -1.89496 -0.649115 4.22234 4.99982 1.7768 0. 1
 -15 1 1 2 0 0 1.89496 0.649115 -4.21997 4.99781 1.7768 0. -1
</event>
<event>
 4 80 1 -1 -1 -1
 11 -1 0 0 0 0 0 0 5 5 0 0. 9.
 -11 -1 0 0 0 0 0 0 -4.99999 4.99999 0 0. 9.
 15 1 1 2 0 0 -4.43252 -1.48144 -0.0176046 4.99999 1.7768 0. 1
 -15 1 1 2 0 0 4.43252 1.48144 0.0176142 4.99999 1.7768 0. -1
</event>
<event>
 4 80 1 -1 -1 -1
 11 -1 0 0 0 0 0 0 5 5 0 0. 9.
 -11 -1 0 0 0 0 0 0 -5 5 0 0. 9.
 15 1 1 2 0 0 1.0882 2.77277 3.60137 5 1.7768 0. -1
 -15 1 1 2 0 0 -1.0882 -2.77277 -3.60137 5 1.7768 0. 1
</event>
<event>
 4 80 1 -1 -1 -1
 11 -1 0 0 0 0 0 0 5 5 0 0. 9.
 -11 -1 0 0 0 0 0 0 -5 5 0 0. 9.
 15 1 1 2 0 0 -4.40057 -1.32609 0.847793 5 1.7768 0. 1
 -15 1 1 2 0 0 4.40057 1.32609 -0.847793 5 1.7768 0. -1
</event>
<event>
 4 80 1 -1 -1 -1
 11 -1 0 0 0 0 0 0 4.80606 4.80606 0 0. 9.
 -11 -1 0 0 0 0 0 0 -5 5 0 0. 9.
 15 1 1 2 0 0 0.943092 1.21341 -4.40023 4.98814 1.7768 0. 1
 -15 1 1 2 0 0 -0.943092 -1.21341 4.20629 4.81792 1.7768 0. -1
</event>
<event>
 4 80 1 -1 -1 -1
 11 -1 0 0 0 0 0 0 4.88123 4.88123 0 0. 9.
 -11 -1 0 0 0 0 0 0 -1.73737 1.73737 0 0. 9.
 15 1 1 2 0 0 -0.621758 2.20631 1.8691 3.45046 1.7768 0. -1
 -15 1 1 2 0 0 0.621758 -2.20631 1.27475 3.16814 1.7768 0. 1
</event>
<event>
 4 80 1 -1 -1 -1
 11 -1 0 0 0 0 0 0 4.99997 4.99997 0 0. 9.
 -11 -1 0 0 0 0 0 0 -4.99951 4.99951 0 0. 9.
 15 1 1 2 0 0 -2.82569 2.63311 2.63118 4.99986 1.7768 0. 1
 -15 1 1 2 0 0 2.82569 -2.63311 -2.63072 4.99962 1.7768 0. -1
</event>
<event>
 4 80 1 -1 -1 -1
 11 -1 0 0 0 0 0 0 4.99387 4.99387 0 0. 9.
 -11 -1 0 0 0 0 0 0 -2.44617 2.44617 0 0. 9.
 15 1 1 2 0 0 -1.68267 -2.49497 1.32001 3.73583 1.7768 0. 1
 -15 1 1 2 0 0 1.68267 2.49497 1.2277 3.70422 1.7768 0. -1
</event>
<event>
 4 80 1 -1 -1 -1
 11 -1 0 0 0 0 0 0 5 5 0 0. 9.
 -11 -1 0 0 0 0 0 0 -4.99623 4.99623 0 0. 9.
 15 1 1 2 0 0 -1.38618 2.64119 3.59717 4.99947 1.7768 0. 1
 -15 1 1 2 0 0 1.38618 -2.64119 -3.59339 4.99676 1.7768 0. -1
</event>
<event>
 4 80 1 -1 -1 -1
 11 -1 0 0 0 0 0 0 5 5 0 0. 9.
 -11 -1 0 0 0 0 0 0 -5 5 0 0. 9.
 15 1 1 2 0 0 -0.427121 0.909516 -4.56428 5 1.7768 0. -1
 -15 1 1 2 0 0 0.427121 -0.909516 4.56428 5 1.7768 0. 1
</event>
<event>
 4 80 1 -1 -1 -1
 11 -1 0 0 0 0 0 0 5 5 0 0. 9.
 -11 -1 0 0 0 0 0 0 -5 5 0 0. 9.
 15 1 1 2 0 0 -4.06713 0.721075 2.18649 5 1.7768 0. 1
 -15 1 1 2 0 0 4.06713 -0.721075 -2.18649 5 1.7768 0. -1
</event>
<event>
 4 80 1 -1 -1 -1
 11 -1 0 0 0 0 0 0 5 5 0 0. 9.
 -11 -1 0 0 0 0 0 0 -5 5 0 0. 9.
 15 1 1 2 0 0 4.64402 -0.128236 0.508827 5 1.7768 0. 1
 -15 1 1 2 0 0 -4.64402 0.128236 -0.508825 5 1.7768 0. -1
</event>
<event>
 4 80 1 -1 -1 -1
 11 -1 0 0 0 0 0 0 4.98076 4.98076 0 0. 9.
 -11 -1 0 0 0 0 0 0 -5 5 0 0. 9.
 15 1 1 2 0 0 -1.17608 4.44909 0.744401 4.98893 1.7768 0. 1
 -15 1 1 2 0 0 1.17608 -4.44909 -0.763637 4.99184 1.7768 0. -1
</event>
<event>
 4 80 1 -1 -1 -1
 11 -1 0 0 0 0 0 0 5 5 0 0. 9.
 -11 -1 0 0 0 0 0 0 -5 5 0 0. 9.
 15 1 1 2 0 0 -0.541485 1.89219 -4.23895 5 1.7768 0. -1
 -15 1 1 2 0 0 0.541485 -1.89219 4.23895 5 1.7768 0. 1
</event>
<event>
 4 80 1 -1 -1 -1
 11 -1 0 0 0 0 0 0 5 5 0 0. 9.
 -11 -1 0 0 0 0 0 0 -5 5 0 0. 9.
 15 1 1 2 0 0 2.65433 1.96209 3.30863 5 1.7768 0. 1
 -15 1 1 2 0 0 -2.65433 -1.96209 -3.30863 5 1.7768 0. -1
</event>
<event>
 4 80 1 -1 -1 -1
 11 -1 0 0 0 0 0 0 4.98276 4.98276 0 0. 9.
 -11 -1 0 0 0 0 0 0 -0.668611 0.668611 0 0. 9.
 15 1 1 2 0 0 -0.0041501 0.379808 2.42308 3.02875 1.7768 0. 1
 -15 1 1 2 0 0 0.0041501 -0.379808 1.89106 2.62262 1.7768 0. -1
</event>
<event>
 4 80 1 -1 -1 -1
 11 -1 0 0 0 0 0 0 5 5 0 0. 9.
 -11 -1 0 0 0 0 0 0 -4.96921 4.96921 0 0. 9.
 15 1 1 2 0 0 -3.14195 -3.40512 -0.455427 4.98315 1.7768 0. 1
 -15 1 1 2 0 0 3.14195 3.40512 0.486216 4.98606 1.7768 0. -1
</event>
<event>
 4 80 1 -1 -1 -1
 11 -1 0 0 0 0 0 0 5 5 0 0. 9.
 -11 -1 0 0 0 0 0 0 -5 5 0 0. 9.
 15 1 1 2 0 0 -2.78442 3.22702 1.9172 5 1.7768 0. 1
 -15 1 1 2 0 0 2.78442 -3.22702 -1.9172 5 1.7768 0. -1
</event>
<event>
 4 80 1 -1 -1 -1
 11 -1 0 0 0 0 0 0 5 5 0 0. 9.
 -11 -1 0 0 0 0 0 0 -4.99707 4.99707 0 0. 9.
 15 1 1 2 0 0 0.407211 4.31672 1.7415 4.99904 1.7768 0. -1
 -15 1 1 2 0 0 -0.407211 -4.31672 -1.73856 4.99802 1.7768 0. 1
</event>
<event>
 4 80 1 -1 -1 -1
 11 -1 0 0 0 0 0 0 5 5 0 0. 9.
 -11 -1 0 0 0 0 0 0 -5 5 0 0. 9.
 15 1 1 2 0 0 1.65433 -4.36442 0.239483 5 1.7768 0. -1
 -15 1 1 2 0 0 -1.65433 4.36442 -0.239483 5 1.7768 0. 1
</event>
<event>
 4 80 1 -1 -1 -1
 11 -1 0 0 0 0 0 0 4.96573 4.96573 0 0. 9.
 -11 -1 0 0 0 0 0 0 -4.99635 4.99635 0 0. 9.
 15 1 1 2 0 0 -2.09237 3.65511 -1.99393 4.98712 1.7768 0. -1
 -15 1 1 2 0 0 2.09237 -3.65511 1.96332 4.97496 1.7768 0. 1
</event>
<event>
 4 80 1 -1 -1 -1
 11 -1 0 0 0 0 0 0 5 5 0 0. 9.
 -11 -1 0 0 0 0 0 0 -4.94671 4.94671 0 0. 9.
 15 1 1 2 0 0 0.88021 -0.0674813 4.58703 4.99779 1.7768 0. 1
 -15 1 1 2 0 0 -0.88021 0.0674813 -4.53374 4.94892 1.7768 0. -1
</event>
<event>
 4 80 1 -1 -1 -1
 11 -1 0 0 0 0 0 0 5 5 0 0. 9.
 -11 -1 0 0 0 0 0 0 -5 5 0 0. 9.
 15 1 1 2 0 0 3.87466 -2.30271 -1.23564 5 1.7768 0. -1
 -15 1 1 2 0 0 -3.87466 2.30271 1.23564 5 1.7768 0. 1
</event>
<event>
 4 80 1 -1 -1 -1
 11 -1 0 0 0 0 0 0 4.82441 4.82441 0 0. 9.
 -11 -1 0 0 0 0 0 0 -5 5 0 0. 9.
 15 1 1 2 0 0 3.63521 2.49185 1.15347 4.89002 1.7768 0. -1
 -15 1 1 2 0 0 -3.63521 -2.49185 -1.32906 4.93439 1.7768 0. 1
</event>
<event>
 4 80 1 -1 -1 -1
 11 -1 0 0 0 0 0 0 5 5 0 0. 9.
 -11 -1 0 0 0 0 0 0 -4.97997 4.97997 0 0. 9.
 15 1 1 2 0 0 2.94968 -3.18118 1.7193 4.99342 1.7768 0. 1
 -15 1 1 2 0 0 -2.94968 3.18118 -1.69927 4.98655 1.7768 0. -1
</event>
<event>
 4 80 1 -1 -1 -1
 11 -1 0 0 0 0 0 0 1.94476 1.94476 0 0. 9.
 -11 -1 0 0 0 0 0 0 -5 5 0 0. 9.
 15 1 1 2 0 0 1.39715 1.94185 -2.55021 3.92225 1.7768 0. -1
 -15 1 1 2 0 0 -1.39715 -1.94185 -0.505032 3.02251 1.7768 0. 1
</event>
<event>
 4 80 1 -1 -1 -1
 11 -1 0 0 0 0 0 0 5 5 0 0. 9.
 -11 -1 0 0 0 0 0 0 -5 5 0 0. 9.
 15 1 1 2 0 0 -2.95759 -3.61376 0.188938 5 1.7768 0. 1
 -15 1 1 2 0 0 2.95759 3.61376 -0.188939 5 1.7768 0. -1
</event>
<event>
 4 80 1 -1 -1 -1
 11 -1 0 0 0 0 0 0 5 5 0 0. 9.
 -11 -1 0 0 0 0 0 0 -5 5 0 0. 9.
 15 1 1 2 0 0 2.11937 3.26518 -2.58634 5 1.7768 0. 1
 -15 1 1 2 0 0 -2.11937 -3.26518 2.58634 5 1.7768 0. -1
</event>
<event>
 4 80 1 -1 -1 -1
 11 -1 0 0 0 0 0 0 5 5 0 0. 9.
 -11 -1 0 0 0 0 0 0 -3.24653 3.24653 0 0. 9.
 15 1 1 2 0 0 -3.31112 -0.717317 -0.416492 3.84828 1.7768 0. 1
 -15 1 1 2 0 0 3.31112 0.717317 2.16997 4.39824 1.7768 0. -1
</event>
<event>
 4 80 1 -1 -1 -1
 11 -1 0 0 0 0 0 0 4.32831 4.32831 0 0. 9.
 -11 -1 0 0 0 0 0 0 -5 5 0 0. 9.
 15 1 1 2 0 0 4.0077 1.15386 -1.38293 4.73955 1.7768 0. 1
 -15 1 1 2 0 0 -4.0077 -1.15386 0.711241 4.58876 1.7768 0. -1
</event>
<event>
 4 80 1 -1 -1 -1
 11 -1 0 0 0 0 0 0 3.4177 3.4177 0 0. 9.
 -11 -1 0 0 0 0 0 0 -5 5 0 0. 9.
 15 1 1 2 0 0 -2.52898 -2.3124 0.714833 3.92577 1.7768 0. -1
 -15 1 1 2 0 0 2.52898 2.3124 -2.29713 4.49193 1.7768 0. 1
</event>
<event>
 4 80 1 -1 -1 -1
 11 -1 0 0 0 0 0 0 5 5 0 0. 9.
 -11 -1 0 0 0 0 0 0 -5 5 0 0. 9.
 15 1 1 2 0 0 -2.08103 -3.4484 -2.37068 5 1.7768 0. 1
 -15 1 1 2 0 0 2.08103 3.4484 2.37068 5 1.7768 0. -1
</event>
<event>
 4 80 1 -1 -1 -1
 11 -1 0 0 0 0 0 0 5 5 0 0. 9.
 -11 -1 0 0 0 0 0 0 -4.99999 4.99999 0 0. 9.
 15 1 1 2 0 0 2.88991 -0.409645 -3.65004 4.99999 1.7768 0. 1
 -15 1 1 2 0 0 -2.88991 0.409645 3.65005 5 1.7768 0. -1
</event>
<event>
 4 80 1 -1 -1 -1
 11 -1 0 0 0 0 0 0 5 5 0 0. 9.
 -11 -1 0 0 0 0 0 0 -5 5 0 0. 9.
 15 1 1 2 0 0 -2.64512 -2.50533 2.92727 5 1.7768 0. 1
 -15 1 1 2 0 0 2.64512 2.50533 -2.92727 5 1.7768 0. -1
</event>
<event>
 4 80 1 -1 -1 -1
 11 -1 0 0 0 0 0 0 4.99999 4.99999 0 0. 9.
 -11 -1 0 0 0 0 0 0 -4.99381 4.99381 0 0. 9.
 15 1 1 2 0 0 -4.31022 1.43983 1.0802 4.99756 1.7768 0. 1
 -15 1 1 2 0 0 4.31022 -1.43983 -1.07401 4.99623 1.7768 0. -1
</event>
<event>
 4 80 1 -1 -1 -1
 11 -1 0 0 0 0 0 0 4.99949 4.99949 0 0. 9.
 -11 -1 0 0 0 0 0 0 -3.52976 3.52976 0 0. 9.
 15 1 1 2 0 0 -3.58657 0.00562999 2.02929 4.48768 1.7768 0. 1
 -15 1 1 2 0 0 3.58657 -0.00562999 -0.559564 4.04157 1.7768 0. -1
</event>
<event>
 4 80 1 -1 -1 -1
 11 -1 0 0 0 0 0 0 2.9651 2.9651 0 0. 9.
 -11 -1 0 0 0 0 0 0 -5 5 0 0. 9.
 15 1 1 2 0 0 -2.7772 0.902543 -2.85037 4.45082 1.7768 0. -1
 -15 1 1 2 0 0 2.7772 -0.902543 0.815473 3.51428 1.7768 0. 1
</event>
<event>
 4 80 1 -1 -1 -1
 11 -1 0 0 0 0 0 0 5 5 0 0. 9.
 -11 -1 0 0 0 0 0 0 -5 5 0 0. 9.
 15 1 1 2 0 0 -0.189585 -0.297492 4.66024 5 1.7768 0. -1
 -15 1 1 2 0 0 0.189585 0.297492 -4.66024 5 1.7768 0. 1
</event>
<event>
 4 80 1 -1 -1 -1
 11 -1 0 0 0 0 0 0 5 5 0 0. 9.
 -11 -1 0 0 0 0 0 0 -4.99968 4.99968 0 0. 9.
 15 1 1 2 0 0 -2.70255 1.67529 3.42511 4.99995 1.7768 0. 1
 -15 1 1 2 0 0 2.70255 -1.67529 -3.42479 4.99973 1.7768 0. -1
</event>
<event>
 4 80 1 -1 -1 -1
 11 -1 0 0 0 0 0 0 5 5 0 0. 9.
 -11 -1 0 0 0 0 0 0 -4.99852 4.99852 0 0. 9.
 15 1 1 2 0 0 -3.1287 2.39228 -2.51385 4.99889 1.7768 0. 1
 -15 1 1 2 0 0 3.1287 -2.39228 2.51532 4.99963 1.7768 0. -1
</event>
<event>
 4 80 1 -1 -1 -1
 11 -1 0 0 0 0 0 0 5 5 0 0. 9.
 -11 -1 0 0 0 0 0 0 -4.98292 4.98292 0 0. 9.
 15 1 1 2 0 0 1.16322 -4.51656 0.0752084 4.99157 1.7768 0. 1
 -15 1 1 2 0 0 -1.16322 4.51656 -0.0581271 4.99135 1.7768 0. -1
</event>
<event>
 4 80 1 -1 -1 -1
 11 -1 0 0 0 0 0 0 5 5 0 0. 9.
 -11 -1 0 0 0 0 0 0 -5 5 0 0. 9.
 15 1 1 2 0 0 0.141678 0.352095 4.65814 5 1.7768 0. 1
 -15 1 1 2 0 0 -0.141678 -0.352095 -4.65814 5 1.7768 0. -1
</event>
<event>
 4 80 1 -1 -1 -1
 11 -1 0 0 0 0 0 0 4.99912 4.99912 0 0. 9.
 -11 -1 0 0 0 0 0 0 -5 5 0 0. 9.
 15 1 1 2 0 0 -2.72606 3.17669 2.07685 4.99937 1.7768 0. 1
 -15 1 1 2 0 0 2.72606 -3.17669 -2.07773 4.99974 1.7768 0. -1
</event>
<event>
 4 80 1 -1 -1 -1
 11 -1 0 0 0 0 0 0 5 5 0 0. 9.
 -11 -1 0 0 0 0 0 0 -5 5 0 0. 9.
 15 1 1 2 0 0 -2.60714 -1.78139 -3.44554 5 1.7768 0. -1
 -15 1 1 2 0 0 2.60714 1.78139 3.44554 5 1.7768 0. 1
</event>
<event>
 4 80 1 -1 -1 -1
 11 -1 0 0 0 0 0 0 2.40275 2.40275 0 0. 9.
 -11 -1 0 0 0 0 0 0 -4.99933 4.99933 0 0. 9.
 15 1 1 2 0 0 -2.03464 1.8062 -2.58519 4.15247 1.7768 0. 1
 -15 1 1 2 0 0 2.03464 -1.8062 -0.0113828 3.24961 1.7768 0. -1
</event>
<event>
 4 80 1 -1 -1 -1
 11 -1 0 0 0 0 0 0 1.29691 1.29691 0 0. 9.
 -11 -1 0 0 0 0 0 0 -5 5 0 0. 9.
 15 1 1 2 0 0 0.622892 -1.51628 -0.862653 2.56691 1.7768 0. 1
 -15 1 1 2 0 0 -0.622892 1.51628 -2.84043 3.73 1.7768 0. -1
</event>
<event>
 4 80 1 -1 -1 -1
 11 -1 0 0 0 0 0 0 4.99964 4.99964 0 0. 9.
 -11 -1 0 0 0 0 0 0 -5 5 0 0. 9.
 15 1 1 2 0 0 -4.29507 1.82969 0.212179 4.99981 1.7768 0. 1
 -15 1 1 2 0 0 4.29507 -1.82969 -0.212535 4.99983 1.7768 0. -1
</event>
<event>
 4 80 1 -1 -1 -1
 11 -1 0 0 0 0 0 0 5 5 0 0. 9.
 -11 -1 0 0 0 0 0 0 -5 5 0 0. 9.
 15 1 1 2 0 0 3.28785 -3.22676 -0.787614 5 1.7768 0. -1
 -15 1 1 2 0 0 -3.28785 3.22676 0.787614 5 1.7768 0. 1
</event>
<event>
 4 80 1 -1 -1 -1
 11 -1 0 0 0 0 0 0 5 5 0 0. 9.
 -11 -1 0 0 0 0 0 0 -5 5 0 0. 9.
 15 1 1 2 0 0 -0.638111 3.83095 2.59979 5 1.7768 0. 1
 -15 1 1 2 0 0 0.638111 -3.83095 -2.59979 5 1.7768 0. -1
</event>
<event>
 4 80 1 -1 -1 -1
 11 -1 0 0 0 0 0 0 4.96332 4.96332 0 0. 9.
 -11 -1 0 0 0 0 0 0 -5 5 0 0. 9.
 15 1 1 2 0 0 -2.88643 0.386724 -3.64849 4.99502 1.7768 0. -1
 -15 1 1 2 0 0 2.88643 -0.386724 3.61181 4.9683 1.7768 0. 1
</event>
<event>
 4 80 1 -1 -1 -1
 11 -1 0 0 0 0 0 0 5 5 0 0. 9.
 -11 -1 0 0 0 0 0 0 -5 5 0 0. 9.
 15 1 1 2 0 0 -3.13114 -3.4539 0.3299 5 1.7768 0. 1
 -15 1 1 2 0 0 3.13114 3.4539 -0.329901 5 1.7768 0. -1
</event>
<event>
 4 80 1 -1 -1 -1
 11 -1 0 0 0 0 0 0 0.712892 0.712892 0 0. 9.
 -11 -1 0 0 0 0 0 0 -4.51803 4.51803 0 0. 9.
 15 1 1 2 0 0 -0.185302 0.158335 -1.99156 2.6802 1.7768 0. 1
 -15 1 1 2 0 0 0.185302 -0.158335 -1.81357 2.55072 1.7768 0. -1
</event>
<event>
 4 80 1 -1 -1 -1
 11 -1 0 0 0 0 0 0 4.99995 4.99995 0 0. 9.
 -11 -1 0 0 0 0 0 0 -5 5 0 0. 9.
 15 1 1 2 0 0 -1.79233 4.31419 0.131442 4.99997 1.7768 0. 1
 -15 1 1 2 0 0 1.79233 -4.31419 -0.131496 4.99997 1.7768 0. -1
</event>
<event>
 4 80 1 -1 -1 -1
 11 -1 0 0 0 0 0 0 5 5 0 0. 9.
 -11 -1 0 0 0 0 0 0 -5 5 0 0. 9.
 15 1 1 2 0 0 3.02813 -2.38114 -2.6463 5 1.7768 0. 1
 -15 1 1 2 0 0 -3.02813 2.38114 2.6463 5 1.7768 0. -1
</event>
<event>
 4 80 1 -1 -1 -1
 11 -1 0 0 0 0 0 0 5 5 0 0. 9.
 -11 -1 0 0 0 0 0 0 -5 5 0 0. 9.
 15 1 1 2 0 0 1.65766 -0.42907 -4.3486 5 1.7768 0. -1
 -15 1 1 2 0 0 -1.65766 0.42907 4.3486 5 1.7768 0. 1
</event>
<event>
 4 80 1 -1 -1 -1
 11 -1 0 0 0 0 0 0 5 5 0 0. 9.
 -11 -1 0 0 0 0 0 0 -5 5 0 0. 9.
 15 1 1 2 0 0 3.74361 -0.0705924 2.7969 5 1.7768 0. -1
 -15 1 1 2 0 0 -3.74361 0.0705924 -2.7969 5 1.7768 0. 1
</event>
<event>
 4 80 1 -1 -1 -1
 11 -1 0 0 0 0 0 0 5 5 0 0. 9.
 -11 -1 0 0 0 0 0 0 -5 5 0 0. 9.
 15 1 1 2 0 0 0.0934575 -1.09913 -4.54152 5 1.7768 0. -1
 -15 1 1 2 0 0 -0.0934575 1.09913 4.54152 5 1.7768 0. 1
</event>
<event>
 4 80 1 -1 -1 -1
 11 -1 0 0 0 0 0 0 5 5 0 0. 9.
 -11 -1 0 0 0 0 0 0 -5 5 0 0. 9.
 15 1 1 2 0 0 4.49832 0.537286 -1.14837 5 1.7768 0. 1
 -15 1 1 2 0 0 -4.49832 -0.537286 1.14837 5 1.7768 0. -1
</event>
<event>
 4 80 1 -1 -1 -1
 11 -1 0 0 0 0 0 0 4.99997 4.99997 0 0. 9.
 -11 -1 0 0 0 0 0 0 -5 5 0 0. 9.
 15 1 1 2 0 0 2.02002 -0.560358 -4.17705 5 1.7768 0. -1
 -15 1 1 2 0 0 -2.02002 0.560358 4.17703 4.99998 1.7768 0. 1
</event>
<event>
 4 80 1 -1 -1 -1
 11 -1 0 0 0 0 0 0 5 5 0 0. 9.
 -11 -1 0 0 0 0 0 0 -5 5 0 0. 9.
 15 1 1 2 0 0 0.525799 -4.63508 0.286156 5 1.7768 0. 1
 -15 1 1 2 0 0 -0.525799 4.63508 -0.286156 5 1.7768 0. -1
</event>
<event>
 4 80 1 -1 -1 -1
 11 -1 0 0 0 0 0 0 4.81305 4.81305 0 0. 9.
 -11 -1 0 0 0 0 0 0 -5 5 0 0. 9.
 15 1 1 2 0 0 -0.280969 -4.32095 -1.56273 4.93451 1.7768 0. -1
 -15 1 1 2 0 0 0.280969 4.32095 1.37578 4.87853 1.7768 0. 1
</event>
<event>
 4 80 1 -1 -1 -1
 11 -1 0 0 0 0 0 0 4.99452 4.99452 0 0. 9.
 -11 -1 0 0 0 0 0 0 -5 5 0 0. 9.
 15 1 1 2 0 0 2.88728 0.764133 3.58816 4.99529 1.7768 0. 1
 -15 1 1 2 0 0 -2.88728 -0.764133 -3.59364 4.99923 1.7768 0. -1
</event>
<event>
 4 80 1 -1 -1 -1
 11 -1 0 0 0 0 0 0 5 5 0 0. 9.
 -11 -1 0 0 0 0 0 0 -5 5 0 0. 9.
 15 1 1 2 0 0 4.26442 -1.84311 -0.50986 5 1.7768 0. -1
 -15 1 1 2 0 0 -4.26442 1.84311 0.50986 5 1.7768 0. 1
</event>
<event>
 4 80 1 -1 -1 -1
 11 -1 0 0 0 0 0 0 5 5 0 0. 9.
 -11 -1 0 0 0 0 0 0 -4.89152 4.89152 0 0. 9.
 15 1 1 2 0 0 -1.73622 2.77529 -3.19913 4.91008 1.7768 0. -1
 -15 1 1 2 0 0 1.73622 -2.77529 3.30761 4.98144 1.7768 0. 1
</event>
<event>
 4 80 1 -1 -1 -1
 11 -1 0 0 0 0 0 0 5 5 0 0. 9.
 -11 -1 0 0 0 0 0 0 -5 5 0 0. 9.
 15 1 1 2 0 0 0.678402 -3.98774 2.34093 5 1.7768 0. -1
 -15 1 1 2 0 0 -0.678402 3.98774 -2.34093 5 1.7768 0. 1
</event>
<event>
 4 80 1 -1 -1 -1
 11 -1 0 0 0 0 0 0 4.61162 4.61162 0 0. 9.
 -11 -1 0 0 0 0 0 0 -5 5 0 0. 9.
 15 1 1 2 0 0 1.09185 -4.01771 1.40906 4.74103 1.7768 0. -1
 -15 1 1 2 0 0 -1.09185 4.01771 -1.79744 4.87059 1.7768 0. 1
</event>
<event>
 4 80 1 -1 -1 -1
 11 -1 0 0 0 0 0 0 4.98868 4.98868 0 0. 9.
 -11 -1 0 0 0 0 0 0 -4.99996 4.99996 0 0. 9.
 15 1 1 2 0 0 -4.21395 -1.58681 1.22327 4.99293 1.7768 0. -1
 -15 1 1 2 0 0 4.21395 1.58681 -1.23454 4.99571 1.7768 0. 1
</event>
<event>
 4 80 1 -1 -1 -1
 11 -1 0 0 0 0 0 0 4.02919 4.02919 0 0. 9.
 -11 -1 0 0 0 0 0 0 -5 5 0 0. 9.
 15 1 1 2 0 0 2.94235 -1.62393 -2.88545 4.77265 1.7768 0. -1
 -15 1 1 2 0 0 -2.94235 1.62393 1.91465 4.25655 1.7768 0. 1
</event>
<event>
 4 80 1 -1 -1 -1
 11 -1 0 0 0 0 0 0 4.87647 4.87647 0 0. 9.
 -11 -1 0 0 0 0 0 0 -4.99905 4.99905 0 0. 9.
 15 1 1 2 0 0 0.158293 -2.86827 -3.66267 4.98246 1.7768 0. 1
 -15 1 1 2 0 0 -0.158293 2.86827 3.54009 4.89306 1.7768 0. -1
</event>
<event>
 4 80 1 -1 -1 -1
 11 -1 0 0 0 0 0 0 5 5 0 0. 9.
 -11 -1 0 0 0 0 0 0 -4.76207 4.76207 0 0. 9.
 15 1 1 2 0 0 -2.792 -1.25113 -3.24239 4.79911 1.7768 0. -1
 -15 1 1 2 0 0 2.792 1.25113 3.48032 4.96296 1.7768 0. 1
</event>
<event>
 4 80 1 -1 -1 -1
 11 -1 0 0 0 0 0 0 4.99999 4.99999 0 0. 9.
 -11 -1 0 0 0 0 0 0 -5 5 0 0. 9.
 15 1 1 2 0 0 -0.270605 1.44669 4.43576 4.99999 1.7768 0. -1
 -15 1 1 2 0 0 0.270605 -1.44669 -4.43578 5 1.7768 0. 1
</event>
<event>
 4 80 1 -1 -1 -1
 11 -1 0 0 0 0 0 0 5 5 0 0. 9.
 -11 -1 0 0 0 0 0 0 -1.01716 1.01716 0 0. 9.
 15 1 1 2 0 0 -0.338406 1.22251 2.74492 3.50733 1.7768 0. -1
 -15 1 1 2 0 0 0.338406 -1.22251 1.23792 2.50982 1.7768 0. 1
</event>
<event>
 4 80 1 -1 -1 -1
 11 -1 0 0 0 0 0 0 5 5 0 0. 9.
 -11 -1 0 0 0 0 0 0 -5 5 0 0. 9.
 15 1 1 2 0 0 -2.43593 -1.63714 -3.63707 5 1.7768 0. 1
 -15 1 1 2 0 0 2.43593 1.63714 3.63707 5 1.7768 0. -1
</event>
<event>
 4 80 1 -1 -1 -1
 11 -1 0 0 0 0 0 0 5 5 0 0. 9.
 -11 -1 0 0 0 0 0 0 -1.50173 1.50173 0 0. 9.
 15 1 1 2 0 0 -0.878587 1.89113 1.68846 3.21822 1.7768 0. -1
 -15 1 1 2 0 0 0.878587 -1.89113 1.80981 3.28351 1.7768 0. 1
</event>
<event>
 4 80 1 -1 -1 -1
 11 -1 0 0 0 0 0 0 5 5 0 0. 9.
 -11 -1 0 0 0 0 0 0 -4.99986 4.99986 0 0. 9.
 15 1 1 2 0 0 -2.39535 2.12648 3.4033 4.99998 1.7768 0. 1
 -15 1 1 2 0 0 2.39535 -2.12648 -3.40316 4.99988 1.7768 0. -1
</event>
<event>
 4 80 1 -1 -1 -1
 11 -1 0 0 0 0 0 0 5 5 0 0. 9.
 -11 -1 0 0 0 0 0 0 -5 5 0 0. 9.
 15 1 1 2 0 0 0.592717 -4.57337 -0.758464 5 1.7768 0. -1
 -15 1 1 2 0 0 -0.592717 4.57337 0.758464 5 1.7768 0. 1
</event>
<event>
 4 80 1 -1 -1 -1
 11 -1 0 0 0 0 0 0 5 5 0 0. 9.
 -11 -1 0 0 0 0 0 0 -4.99885 4.99885 0 0. 9.
 15 1 1 2 0 0 -2.53235 -3.53819 -1.70383 4.99923 1.7768 0. 1
 -15 1 1 2 0 0 2.53235 3.53819 1.70497 4.99962 1.7768 0. -1
</event>
<event>
 4 80 1 -1 -1 -1
 11 -1 0 0 0 0 0 0 4.99423 4.99423 0 0. 9.
 -11 -1 0 0 0 0 0 0 -4.99999 4.99999 0 0. 9.
 15 1 1 2 0 0 1.78738 -4.04542 1.49821 4.99625 1.7768 0. 1
 -15 1 1 2 0 0 -1.78738 4.04542 -1.50397 4.99798 1.7768 0. -1
</event>
<event>
 4 80 1 -1 -1 -1
 11 -1 0 0 0 0 0 0 5 5 0 0. 9.
 -11 -1 0 0 0 0 0 0 -4.99711 4.99711 0 0. 9.
 15 1 1 2 0 0 -0.188398 -4.00863 -2.39088 4.99786 1.7768 0. -1
 -15 1 1 2 0 0 0.188398 4.00863 2.39377 4.99925 1.7768 0. 1
</event>
<event>
 4 80 1 -1 -1 -1
 11 -1 0 0 0 0 0 0 4.99999 4.99999 0 0. 9.
 -11 -1 0 0 0 0 0 0 -5 5 0 0. 9.
 15 1 1 2 0 0 0.0588344 1.9411 4.25098 4.99999 1.7768 0. -1
 -15 1 1 2 0 0 -0.0588344 -1.9411 -4.25099 5 1.7768 0. 1
</event>
<event>
 4 80 1 -1 -1 -1
 11 -1 0 0 0 0 0 0 4.7075 4.7075 0 0. 9.
 -11 -1 0 0 0 0 0 0 -4.9999 4.9999 0 0. 9.
 15 1 1 2 0 0 1.87771 4.00304 0.76481 4.82626 1.7768 0. 1
 -15 1 1 2 0 0 -1.87771 -4.00304 -1.05721 4.88114 1.7768 0. -1
</event>
<event>
 4 80 1 -1 -1 -1
 11 -1 0 0 0 0 0 0 4.99729 4.99729 0 0. 9.
 -11 -1 0 0 0 0 0 0 -5 5 0 0. 9.
 15 1 1 2 0 0 3.19378 2.68116 -2.10844 4.99922 1.7768 0. 1
 -15 1 1 2 0 0 -3.19378 -2.68116 2.10573 4.99807 1.7768 0. -1
</event>
<event>
 4 80 1 -1 -1 -1
 11 -1 0 0 0 0 0 0 5 5 0 0. 9.
 -11 -1 0 0 0 0 0 0 -5 5 0 0. 9.
 15 1 1 2 0 0 -1.25964 0.122962 -4.49894 5 1.7768 0. 1
 -15 1 1 2 0 0 1.25964 -0.122962 4.49894 5 1.7768 0. -1
</event>
<event>
 4 80 1 -1 -1 -1
 11 -1 0 0 0 0 0 0 5 5 0 0. 9.
 -11 -1 0 0 0 0 0 0 -4.4598 4.4598 0 0. 9.
 15 1 1 2 0 0 -2.94289 -0.852737 3.39827 4.90853 1.7768 0. 1
 -15 1 1 2 0 0 2.94289 0.852737 -2.85807 4.55127 1.7768 0. -1
</event>
<event>
 4 80 1 -1 -1 -1
 11 -1 0 0 0 0 0 0 5 5 0 0. 9.
 -11 -1 0 0 0 0 0 0 -5 5 0 0. 9.
 15 1 1 2 0 0 -4.0702 2.23583 -0.526165 5 1.7768 0. -1
 -15 1 1 2 0 0 4.0702 -2.23583 0.526165 5 1.7768 0. 1
</event>
<event>
 4 80 1 -1 -1 -1
 11 -1 0 0 0 0 0 0 3.97487 3.97487 0 0. 9.
 -11 -1 0 0 0 0 0 0 -5 5 0 0. 9.
 15 1 1 2 0 0 3.36434 2.03885 -1.63387 4.61551 1.7768 0. 1
 -15 1 1 2 0 0 -3.36434 -2.03885 0.608741 4.35936 1.7768 0. -1
</event>
<event>
 4 80 1 -1 -1 -1
 11 -1 0 0 0 0 0 0 5 5 0 0. 9.
 -11 -1 0 0 0 0 0 0 -5 5 0 0. 9.
 15 1 1 2 0 0 1.05047 -2.51392 3.79723 5 1.7768 0. 1
 -15 1 1 2 0 0 -1.05047 2.51392 -3.79723 5 1.7768 0. -1
</event>
<event>
 4 80 1 -1 -1 -1
 11 -1 0 0 0 0 0 0 5 5 0 0. 9.
 -11 -1 0 0 0 0 0 0 -4.99709 4.99709 0 0. 9.
 15 1 1 2 0 0 -4.22462 0.119344 1.99295 4.99912 1.7768 0. -1
 -15 1 1 2 0 0 4.22462 -0.119344 -1.99004 4.99796 1.7768 0. 1
</event>
<event>
 4 80 1 -1 -1 -1
 11 -1 0 0 0 0 0 0 5 5 0 0. 9.
 -11 -1 0 0 0 0 0 0 -4.99986 4.99986 0 0. 9.
 15 1 1 2 0 0 -2.28567 -0.502044 4.04547 4.99999 1.7768 0. 1
 -15 1 1 2 0 0 2.28567 0.502044 -4.04533 4.99987 1.7768 0. -1
</event>
<event>
 4 80 1 -1 -1 -1
 11 -1 0 0 0 0 0 0 3.37067 3.37067 0 0. 9.
 -11 -1 0 0 0 0 0 0 -5 5 0 0. 9.
 15 1 1 2 0 0 -1.09725 -0.27529 2.77766 3.4861 1.7768 0. -1
 -15 1 1 2 0 0 1.09725 0.27529 -4.40699 4.88457 1.7768 0. 1
</event>
<event>
 4 80 1 -1 -1 -1
 11 -1 0 0 0 0 0 0 5 5 0 0. 9.
 -11 -1 0 0 0 0 0 0 -4.84382 4.84382 0 0. 9.
 15 1 1 2 0 0 0.586386 1.7864 4.26506 4.98834 1.7768 0. 1
 -15 1 1 2 0 0 -0.586386 -1.7864 -4.10888 4.85548 1.7768 0. -1
</event>
<event>
 4 80 1 -1 -1 -1
 11 -1 0 0 0 0 0 0 5 5 0 0. 9.
 -11 -1 0 0 0 0 0 0 -1.56792 1.56792 0 0. 9.
 15 1 1 2 0 0 -0.110876 -1.47239 -0.139048 2.31458 1.7768 0. 1
 -15 1 1 2 0 0 0.110876 1.47239 3.57112 4.25334 1.7768 0. -1
</event>
<event>
 4 80 1 -1 -1 -1
 11 -1 0 0 0 0 0 0 4.99937 4.99937 0 0. 9.
 -11 -1 0 0 0 0 0 0 -4.99995 4.99995 0 0. 9.
 15 1 1 2 0 0 -1.21301 2.03359 4.0286 4.99943 1.7768 0. -1
 -15 1 1 2 0 0 1.21301 -2.03359 -4.02918 4.99989 1.7768 0. 1
</event>
<event>
 4 80 1 -1 -1 -1
 11 -1 0 0 0 0 0 0 5 5 0 0. 9.
 -11 -1 0 0 0 0 0 0 -4.99817 4.99817 0 0. 9.
 15 1 1 2 0 0 -0.58251 3.68892 -2.80723 4.99857 1.7768 0. 1
 -15 1 1 2 0 0 0.58251 -3.68892 2.80906 4.9996 1.7768 0. -1
</event>
<event>
 4 80 1 -1 -1 -1
 11 -1 0 0 0 0 0 0 3.81357 3.81357 0 0. 9.
 -11 -1 0 0 0 0 0 0 -4.99999 4.99999 0 0. 9.
 15 1 1 2 0 0 -3.09453 -0.683173 1.85127 4.07772 1.7768 0. -1
 -15 1 1 2 0 0 3.09453 0.683173 -3.0377 4.73584 1.7768 0. 1
</event>
<event>
 4 80 1 -1 -1 -1
 11 -1 0 0 0 0 0 0 5 5 0 0. 9.
 -11 -1 0 0 0 0 0 0 -5 5 0 0. 9.
 15 1 1 2 0 0 -4.33519 1.70575 0.372564 5 1.7768 0. -1
 -15 1 1 2 0 0 4.33519 -1.70575 -0.372564 5 1.7768 0. 1
</event>
<event>
 4 80 1 -1 -1 -1
 11 -1 0 0 0 0 0 0 4.99999 4.99999 0 0. 9.
 -11 -1 0 0 0 0 0 0 -4.99997 4.99997 0 0. 9.
 15 1 1 2 0 0 -1.41738 2.61811 3.60258 4.99998 1.7768 0. 1
 -15 1 1 2 0 0 1.41738 -2.61811 -3.60257 4.99997 1.7768 0. -1
</event>
<event>
 4 80 1 -1 -1 -1
 11 -1 0 0 0 0 0 0 5 5 0 0. 9.
 -11 -1 0 0 0 0 0 0 -5 5 0 0. 9.
 15 1 1 2 0 0 1.4536 -2.7756 3.46776 5 1.7768 0. 1
 -15 1 1 2 0 0 -1.4536 2.7756 -3.46776 5 1.7768 0. -1
</event>
<event>
 4 80 1 -1 -1 -1
 11 -1 0 0 0 0 0 0 5 5 0 0. 9.
 -11 -1 0 0 0 0 0 0 -0.649306 0.649306 0 0. 9.
 15 1 1 2 0 0 -0.00119136 -0.0709336 1.72162 2.47523 1.7768 0. 1
 -15 1 1 2 0 0 0.00119136 0.0709336 2.62907 3.17408 1.7768 0. -1
</event>
<event>
 4 80 1 -1 -1 -1
 11 -1 0 0 0 0 0 0 4.75869 4.75869 0 0. 9.
 -11 -1 0 0 0 0 0 0 -5 5 0 0. 9.
 15 1 1 2 0 0 4.23216 -0.202395 1.51802 4.83883 1.7768 0. -1
 -15 1 1 2 0 0 -4.23216 0.202395 -1.75933 4.91987 1.7768 0. 1
</event>
<event>
 4 80 1 -1 -1 -1
 11 -1 0 0 0 0 0 0 5 5 0 0. 9.
 -11 -1 0 0 0 0 0 0 -5 5 0 0. 9.
 15 1 1 2 0 0 -4.45805 -1.40208 0.0466597 5 1.7768 0. 1
 -15 1 1 2 0 0 4.45805 1.40208 -0.0466617 5 1.7768 0. -1
</event>
<event>
 4 80 1 -1 -1 -1
 11 -1 0 0 0 0 0 0 2.70436 2.70436 0 0. 9.
 -11 -1 0 0 0 0 0 0 -5 5 0 0. 9.
 15 1 1 2 0 0 2.45523 -0.628548 0.931809 3.23252 1.7768 0. -1
 -15 1 1 2 0 0 -2.45523 0.628548 -3.22745 4.47184 1.7768 0. 1
</event>
<event>
 4 80 1 -1 -1 -1
 11 -1 0 0 0 0 0 0 5 5 0 0. 9.
 -11 -1 0 0 0 0 0 0 -4.94055 4.94055 0 0. 9.
 15 1 1 2 0 0 -2.8742 0.765054 3.59331 4.99159 1.7768 0. -1
 -15 1 1 2 0 0 2.8742 -0.765054 -3.53386 4.94897 1.7768 0. 1
</event>
<event>
 4 80 1 -1 -1 -1
 11 -1 0 0 0 0 0 0 4.65405 4.65405 0 0. 9.
 -11 -1 0 0 0 0 0 0 -4.99993 4.99993 0 0. 9.
 15 1 1 2 0 0 2.97415 -1.85411 2.62688 4.72668 1.7768 0. 1
 -15 1 1 2 0 0 -2.97415 1.85411 -2.97275 4.9273 1.7768 0. -1
</event>
<event>
 4 80 1 -1 -1 -1
 11 -1 0 0 0 0 0 0 5 5 0 0. 9.
 -11 -1 0 0 0 0 0 0 -2.56342 2.56342 0 0. 9.
 15 1 1 2 0 0 -2.37249 1.14702 2.95882 4.34243 1.7768 0. -1
 -15 1 1 2 0 0 2.37249 -1.14702 -0.522239 3.221 1.7768 0. 1
</event>
<event>
 4 80 1 -1 -1 -1
 11 -1 0 0 0 0 0 0 5 5 0 0. 9.
 -11 -1 0 0 0 0 0 0 -4.98729 4.98729 0 0. 9.
 15 1 1 2 0 0 1.19011 3.41707 2.95356 4.9974 1.7768 0. -1
 -15 1 1 2 0 0 -1.19011 -3.41707 -2.94084 4.98989 1.7768 0. 1
</event>
<event>
 4 80 1 -1 -1 -1
 11 -1 0 0 0 0 0 0 5 5 0 0. 9.
 -11 -1 0 0 0 0 0 0 -5 5 0 0. 9.
 15 1 1 2 0 0 -0.806072 4.1784 1.93222 5 1.7768 0. 1
 -15 1 1 2 0 0 0.806072 -4.1784 -1.93222 5 1.7768 0. -1
</event>
<event>
 4 80 1 -1 -1 -1
 11 -1 0 0 0 0 0 0 5 5 0 0. 9.
 -11 -1 0 0 0 0 0 0 -4.99324 4.99324 0 0. 9.
 15 1 1 2 0 0 2.63069 1.42977 -3.58042 4.99419 1.7768 0. 1
 -15 1 1 2 0 0 -2.63069 -1.42977 3.58718 4.99904 1.7768 0. -1
</event>
<event>
 4 80 1 -1 -1 -1
 11 -1 0 0 0 0 0 0 5 5 0 0. 9.
 -11 -1 0 0 0 0 0 0 -4.74296 4.74296 0 0. 9.
 15 1 1 2 0 0 0.229484 3.40914 -2.85282 4.79283 1.7768 0. 1
 -15 1 1 2 0 0 -0.229484 -3.40914 3.10986 4.95013 1.7768 0. -1
</event>
<event>
 4 80 1 -1 -1 -1
 11 -1 0 0 0 0 0 0 4.99998 4.99998 0 0. 9.
 -11 -1 0 0 0 0 0 0 -5 5 0 0. 9.
 15 1 1 2 0 0 -1.23046 2.62784 -3.6637 5 1.7768 0. -1
 -15 1 1 2 0 0 1.23046 -2.62784 3.66368 4.99998 1.7768 0. 1
</event>
<event>
 4 80 1 -1 -1 -1
 11 -1 0 0 0 0 0 0 5 5 0 0. 9.
 -11 -1 0 0 0 0 0 0 -5 5 0 0. 9.
 15 1 1 2 0 0 -1.95748 -2.51212 -3.42049 5 1.7768 0. -1
 -15 1 1 2 0 0 1.95748 2.51212 3.42049 5 1.7768 0. 1
</event>
<event>
 4 80 1 -1 -1 -1
 11 -1 0 0 0 0 0 0 5 5 0 0. 9.
 -11 -1 0 0 0 0 0 0 -5 5 0 0. 9.
 15 1 1 2 0 0 -3.58543 -2.29459 -1.9292 5 1.7768 0. 1
 -15 1 1 2 0 0 3.58543 2.29459 1.9292 5 1.7768 0. -1
</event>
<event>
 4 80 1 -1 -1 -1
 11 -1 0 0 0 0 0 0 4.99997 4.99997 0 0. 9.
 -11 -1 0 0 0 0 0 0 -5 5 0 0. 9.
 15 1 1 2 0 0 4.38395 -1.08632 1.20125 4.99998 1.7768 0. -1
 -15 1 1 2 0 0 -4.38395 1.08632 -1.20128 4.99999 1.7768 0. 1
</event>
<event>
 4 80 1 -1 -1 -1
 11 -1 0 0 0 0 0 0 2.442 2.442 0 0. 9.
 -11 -1 0 0 0 0 0 0 -4.95226 4.95226 0 0. 9.
 15 1 1 2 0 0 0.597556 2.1864 0.816841 2.99373 1.7768 0. -1
 -15 1 1 2 0 0 -0.597556 -2.1864 -3.32709 4.40054 1.7768 0. 1
</event>
<event>
 4 80 1 -1 -1 -1
 11 -1 0 0 0 0 0 0 4.98176 4.98176 0 0. 9.
 -11 -1 0 0 0 0 0 0 -5 5 0 0. 9.
 15 1 1 2 0 0 -1.3526 0.403316 4.43598 4.98276 1.7768 0. -1
 -15 1 1 2 0 0 1.3526 -0.403316 -4.45422 4.999 1.7768 0. 1
</event>
<event>
 4 80 1 -1 -1 -1
 11 -1 0 0 0 0 0 0 4.99999 4.99999 0 0. 9.
 -11 -1 0 0 0 0 0 0 -5 5 0 0. 9.
 15 1 1 2 0 0 -0.549761 3.91133 -2.49829 5 1.7768 0. -1
 -15 1 1 2 0 0 0.549761 -3.91133 2.49829 4.99999 1.7768 0. 1
</event>
<event>
 4 80 1 -1 -1 -1
 11 -1 0 0 0 0 0 0 2.07654 2.07654 0 0. 9.
 -11 -1 0 0 0 0 0 0 -5 5 0 0. 9.
 15 1 1 2 0 0 0.224046 -0.447077 1.43831 2.3402 1.7768 0. -1
 -15 1 1 2 0 0 -0.224046 0.447077 -4.36177 4.73634 1.7768 0. 1
</event>
<event>
 4 80 1 -1 -1 -1
 11 -1 0 0 0 0 0 0 0.706991 0.706991 0 0. 9.
 -11 -1 0 0 0 0 0 0 -5 5 0 0. 9.
 15 1 1 2 0 0 0.244412 0.508748 -1.7789 2.57697 1.7768 0. -1
 -15 1 1 2 0 0 -0.244412 -0.508748 -2.5141 3.13002 1.7768 0. 1
</event>
<event>
 4 80 1 -1 -1 -1
 11 -1 0 0 0 0 0 0 5 5 0 0. 9.
 -11 -1 0 0 0 0 0 0 -4.86424 4.86424 0 0. 9.
 15 1 1 2 0 0 -1.36184 4.304 -0.817906 4.91993 1.7768 0. -1
 -15 1 1 2 0 0 1.36184 -4.304 0.953664 4.94431 1.7768 0. 1
</event>
<event>
 4 80 1 -1 -1 -1
 11 -1 0 0 0 0 0 0 4.99308 4.99308 0 0. 9.
 -11 -1 0 0 0 0 0 0 -4.99325 4.99325 0 0. 9.
 15 1 1 2 0 0 0.309876 1.7892 -4.29854 4.99324 1.7768 0. -1
 -15 1 1 2 0 0 -0.309876 -1.7892 4.29836 4.99309 1.7768 0. 1
</event>
<event>
 4 80 1 -1 -1 -1
 11 -1 0 0 0 0 0 0 5 5 0 0. 9.
 -11 -1 0 0 0 0 0 0 -5 5 0 0. 9.
 15 1 1 2 0 0 3.87042 0.813827 -2.48995 5 1.7768 0. 1
 -15 1 1 2 0 0 -3.87042 -0.813827 2.48995 5 1.7768 0. -1
</event>
<event>
 4 80 1 -1 -1 -1
 11 -1 0 0 0 0 0 0 5 5 0 0. 9.
 -11 -1 0 0 0 0 0 0 -5 5 0 0. 9.
 15 1 1 2 0 0 0.430263 3.27836 3.30296 5 1.7768 0. 1
 -15 1 1 2 0 0 -0.430263 -3.27836 -3.30295 5 1.7768 0. -1
</event>
<event>
 4 80 1 -1 -1 -1
 11 -1 0 0 0 0 0 0 5 5 0 0. 9.
 -11 -1 0 0 0 0 0 0 -5 5 0 0. 9.
 15 1 1 2 0 0 -0.825562 -1.81073 -4.22871 5 1.7768 0. 1
 -15 1 1 2 0 0 0.825562 1.81073 4.22871 5 1.7768 0. -1
</event>
<event>
 4 80 1 -1 -1 -1
 11 -1 0 0 0 0 0 0 3.69493 3.69493 0 0. 9.
 -11 -1 0 0 0 0 0 0 -4.99557 4.99557 0 0. 9.
 15 1 1 2 0 0 -1.40277 -3.2014 -2.4264 4.61106 1.7768 0. 1
 -15 1 1 2 0 0 1.40277 3.2014 1.12576 4.07944 1.7768 0. -1
</event>
<event>
 4 80 1 -1 -1 -1
 11 -1 0 0 0 0 0 0 4.99906 4.99906 0 0. 9.
 -11 -1 0 0 0 0 0 0 -5 5 0 0. 9.
 15 1 1 2 0 0 0.287964 2.52363 3.92202 4.99916 1.7768 0. 1
 -15 1 1 2 0 0 -0.287964 -2.52363 -3.92296 4.9999 1.7768 0. -1
</event>
<event>
 4 80 1 -1 -1 -1
 11 -1 0 0 0 0 0 0 5 5 0 0. 9.
 -11 -1 0 0 0 0 0 0 -4.78007 4.78007 0 0. 9.
 15 1 1 2 0 0 3.54898 2.8537 0.171366 4.89142 1.7768 0. 1
 -15 1 1 2 0 0 -3.54898 -2.8537 0.0485625 4.88865 1.7768 0. -1
</event>
<event>
 4 80 1 -1 -1 -1
 11 -1 0 0 0 0 0 0 0.683951 0.683951 0 0. 9.
 -11 -1 0 0 0 0 0 0 -5 5 0 0. 9.
 15 1 1 2 0 0 0.0263126 0.0207191 -2.94301 3.43805 1.7768 0. -1
 -15 1 1 2 0 0 -0.0263126 -0.0207191 -1.37303 2.2459 1.7768 0. 1
</event>
<event>
 4 80 1 -1 -1 -1
 11 -1 0 0 0 0 0 0 5 5 0 0. 9.
 -11 -1 0 0 0 0 0 0 -5 5 0 0. 9.
 15 1 1 2 0 0 2.49431 1.13923 -3.78455 5 1.7768 0. 1
 -15 1 1 2 0 0 -2.49431 -1.13923 3.78455 5 1.7768 0. -1
</event>
<event>
 4 80 1 -1 -1 -1
 11 -1 0 0 0 0 0 0 5 5 0 0. 9.
 -11 -1 0 0 0 0 0 0 -4.99998 4.99998 0 0. 9.
 15 1 1 2 0 0 -2.36078 -3.78887 1.38325 4.99999 1.7768 0. 1
 -15 1 1 2 0 0 2.36078 3.78887 -1.38323 4.99999 1.7768 0. -1
</event>
<event>
 4 80 1 -1 -1 -1
 11 -1 0 0 0 0 0 0 4.98099 4.98099 0 0. 9.
 -11 -1 0 0 0 0 0 0 -2.49484 2.49484 0 0. 9.
 15 1 1 2 0 0 2.96872 -0.320495 0.613068 3.5284 1.7768 0. 1
 -15 1 1 2 0 0 -2.96872 0.320495 1.87308 3.94743 1.7768 0. -1
</event>
<event>
 4 80 1 -1 -1 -1
 11 -1 0 0 0 0 0 0 5 5 0 0. 9.
 -11 -1 0 0 0 0 0 0 -5 5 0 0. 9.
 15 1 1 2 0 0 -1.63818 -2.81569 -3.3512 5 1.7768 0. -1
 -15 1 1 2 0 0 1.63818 2.81569 3.3512 5 1.7768 0. 1
</event>
<event>
 4 80 1 -1 -1 -1
 11 -1 0 0 0 0 0 0 4.87991 4.87991 0 0. 9.
 -11 -1 0 0 0 0 0 0 -4.99987 4.99987 0 0. 9.
 15 1 1 2 0 0 -1.31403 3.65161 -2.54618 4.97008 1.7768 0. -1
 -15 1 1 2 0 0 1.31403 -3.65161 2.42621 4.9097 1.7768 0. 1
</event>
<event>
 4 80 1 -1 -1 -1
 11 -1 0 0 0 0 0 0 4.67395 4.67395 0 0. 9.
 -11 -1 0 0 0 0 0 0 -3.07421 3.07421 0 0. 9.
 15 1 1 2 0 0 -2.83487 1.645 0.100378 3.72966 1.7768 0. 1
 -15 1 1 2 0 0 2.83487 -1.645 1.49936 4.0185 1.7768 0. -1
</event>
<event>
 4 80 1 -1 -1 -1
 11 -1 0 0 0 0 0 0 5 5 0 0. 9.
 -11 -1 0 0 0 0 0 0 -5 5 0 0. 9.
 15 1 1 2 0 0 -3.20407 2.92402 -1.73963 5 1.7768 0. 1
 -15 1 1 2 0 0 3.20407 -2.92402 1.73963 5 1.7768 0. -1
</event>
<event>
 4 80 1 -1 -1 -1
 11 -1 0 0 0 0 0 0 5 5 0 0. 9.
 -11 -1 0 0 0 0 0 0 -4.81355 4.81355 0 0. 9.
 15 1 1 2 0 0 2.29046 2.60083 -2.89052 4.85009 1.7768 0. 1
 -15 1 1 2 0 0 -2.29046 -2.60083 3.07697 4.96346 1.7768 0. -1
</event>
<event>
 4 80 1 -1 -1 -1
 11 -1 0 0 0 0 0 0 4.99998 4.99998 0 0. 9.
 -11 -1 0 0 0 0 0 0 -1.46723 1.46723 0 0. 9.
 15 1 1 2 0 0 -1.47077 1.05801 2.89636 3.85087 1.7768 0. 1
 -15 1 1 2 0 0 1.47077 -1.05801 0.636384 2.61634 1.7768 0. -1
</event>
<event>
 4 80 1 -1 -1 -1
 11 -1 0 0 0 0 0 0 5 5 0 0. 9.
 -11 -1 0 0 0 0 0 0 -5 5 0 0. 9.
 15 1 1 2 0 0 2.70639 2.01123 -3.23615 5 1.7768 0. -1
 -15 1 1 2 0 0 -2.70639 -2.01123 3.23615 5 1.7768 0. 1
</event>
<event>
 4 80 1 -1 -1 -1
 11 -1 0 0 0 0 0 0 4.99718 4.99718 0 0. 9.
 -11 -1 0 0 0 0 0 0 -5 5 0 0. 9.
 15 1 1 2 0 0 3.90969 1.26712 -2.22332 4.99922 1.7768 0. -1
 -15 1 1 2 0 0 -3.90969 -1.26712 2.22051 4.99797 1.7768 0. 1
</event>
<event>
 4 80 1 -1 -1 -1
 11 -1 0 0 0 0 0 0 5 5 0 0. 9.
 -11 -1 0 0 0 0 0 0 -4.99997 4.99997 0 0. 9.
 15 1 1 2 0 0 -2.20215 3.63825 1.938 4.99999 1.7768 0. -1
 -15 1 1 2 0 0 2.20215 -3.63825 -1.93798 4.99998 1.7768 0. 1
</event>
<event>
 4 80 1 -1 -1 -1
 11 -1 0 0 0 0 0 0 5 5 0 0. 9.
 -11 -1 0 0 0 0 0 0 -5 5 0 0. 9.
 15 1 1 2 0 0 1.96569 -2.84453 3.14436 5 1.7768 0. -1
 -15 1 1 2 0 0 -1.96569 2.84453 -3.14436 5 1.7768 0. 1
</event>
<event>
 4 80 1 -1 -1 -1
 11 -1 0 0 0 0 0 0 5 5 0 0. 9.
 -11 -1 0 0 0 0 0 0 -5 5 0 0. 9.
 15 1 1 2 0 0 4.61589 -0.615071 -0.396883 5 1.7768 0. 1
 -15 1 1 2 0 0 -4.61589 0.615071 0.396883 5 1.7768 0. -1
</event>
<event>
 4 80 1 -1 -1 -1
 11 -1 0 0 0 0 0 0 5 5 0 0. 9.
 -11 -1 0 0 0 0 0 0 -3.47317 3.47317 0 0. 9.
 15 1 1 2 0 0 0.0232167 1.22183 -2.8617 3.58336 1.7768 0. 1
 -15 1 1 2 0 0 -0.0232167 -1.22183 4.38852 4.88982 1.7768 0. -1
</event>
<event>
 4 80 1 -1 -1 -1
 11 -1 0 0 0 0 0 0 4.97693 4.97693 0 0. 9.
 -11 -1 0 0 0 0 0 0 -4.99316 4.99316 0 0. 9.
 15 1 1 2 0 0 -1.03665 -2.88793 -3.51214 4.99075 1.7768 0. 1
 -15 1 1 2 0 0 1.03665 2.88793 3.4959 4.97934 1.7768 0. -1
</event>
<event>
 4 80 1 -1 -1 -1
 11 -1 0 0 0 0 0 0 5 5 0 0. 9.
 -11 -1 0 0 0 0 0 0 -5 5 0 0. 9.
 15 1 1 2 0 0 -3.32958 -1.9701 -2.622 5 1.7768 0. -1
 -15 1 1 2 0 0 3.32958 1.9701 2.622 5 1.7768 0. 1
</event>
<event>
 4 80 1 -1 -1 -1
 11 -1 0 0 0 0 0 0 5 5 0 0. 9.
 -11 -1 0 0 0 0 0 0 -4.25973 4.25973 0 0. 9.
 15 1 1 2 0 0 0.0987361 1.25061 -3.71321 4.30342 1.7768 0. -1
 -15 1 1 2 0 0 -0.0987361 -1.25061 4.45348 4.95631 1.7768 0. 1
</event>
<event>
 4 80 1 -1 -1 -1
 11 -1 0 0 0 0 0 0 4.77475 4.77475 0 0. 9.
 -11 -1 0 0 0 0 0 0 -5 5 0 0. 9.
 15 1 1 2 0 0 1.09133 -1.2621 4.12313 4.78977 1.7768 0. -1
 -15 1 1 2 0 0 -1.09133 1.2621 -4.34838 4.98498 1.7768 0. 1
</event>
<event>
 4 80 1 -1 -1 -1
 11 -1 0 0 0 0 0 0 4.99666 4.99666 0 0. 9.
 -11 -1 0 0 0 0 0 0 -5 5 0 0. 9.
 15 1 1 2 0 0 1.98844 2.73672 -3.22379 4.99941 1.7768 0. -1
 -15 1 1 2 0 0 -1.98844 -2.73672 3.22044 4.99725 1.7768 0. 1
</event>
<event>
 4 80 1 -1 -1 -1
 11 -1 0 0 0 0 0 0 5 5 0 0. 9.
 -11 -1 0 0 0 0 0 0 -4.99899 4.99899 0 0. 9.
 15 1 1 2 0 0 -0.969306 -2.94301 3.49855 4.99985 1.7768 0. 1
 -15 1 1 2 0 0 0.969306 2.94301 -3.49754 4.99914 1.7768 0. -1
</event>
<event>
 4 80 1 -1 -1 -1
 11 -1 0 0 0 0 0 0 4.99911 4.99911 0 0. 9.
 -11 -1 0 0 0 0 0 0 -5 5 0 0. 9.
 15 1 1 2 0 0 -0.802933 -2.14646 -4.07301 4.99992 1.7768 0. -1
 -15 1 1 2 0 0 0.802933 2.14646 4.07213 4.99919 1.7768 0. 1
</event>
<event>
 4 80 1 -1 -1 -1
 11 -1 0 0 0 0 0 0 5 5 0 0. 9.
 -11 -1 0 0 0 0 0 0 -5 5 0 0. 9.
 15 1 1 2 0 0 1.07511 1.06468 4.42186 5 1.7768 0. -1
 -15 1 1 2 0 0 -1.07511 -1.06468 -4.42186 5 1.7768 0. 1
</event>
<event>
 4 80 1 -1 -1 -1
 11 -1 0 0 0 0 0 0 4.99979 4.99979 0 0. 9.
 -11 -1 0 0 0 0 0 0 -5 5 0 0. 9.
 15 1 1 2 0 0 1.5132 2.51101 -3.63964 4.99997 1.7768 0. 1
 -15 1 1 2 0 0 -1.5132 -2.51101 3.63943 4.99982 1.7768 0. -1
</event>
<event>
 4 80 1 -1 -1 -1
 11 -1 0 0 0 0 0 0 4.62946 4.62946 0 0. 9.
 -11 -1 0 0 0 0 0 0 -5 5 0 0. 9.
 15 1 1 2 0 0 0.446177 -3.26703 -3.20695 4.931 1.7768 0. -1
 -15 1 1 2 0 0 -0.446177 3.26703 2.83641 4.69846 1.7768 0. 1
</event>
<event>
 4 80 1 -1 -1 -1
 11 -1 0 0 0 0 0 0 4.99747 4.99747 0 0. 9.
 -11 -1 0 0 0 0 0 0 -4.99999 4.99999 0 0. 9.
 15 1 1 2 0 0 -2.36587 4.02413 -0.19774 4.99878 1.7768 0. 1
 -15 1 1 2 0 0 2.36587 -4.02413 0.195219 4.99868 1.7768 0. -1
</event>
<event>
 4 80 1 -1 -1 -1
 11 -1 0 0 0 0 0 0 5 5 0 0. 9.
 -11 -1 0 0 0 0 0 0 -4.97531 4.97531 0 0. 9.
 15 1 1 2 0 0 -4.0882 2.20418 -0.371125 4.98671 1.7768 0. 1
 -15 1 1 2 0 0 4.0882 -2.20418 0.395814 4.9886 1.7768 0. -1
</event>
<event>
 4 80 1 -1 -1 -1
 11 -1 0 0 0 0 0 0 4.92413 4.92413 0 0. 9.
 -11 -1 0 0 0 0 0 0 -4.99998 4.99998 0 0. 9.
 15 1 1 2 0 0 2.72817 2.07461 -3.15505 4.98588 1.7768 0. 1
 -15 1 1 2 0 0 -2.72817 -2.07461 3.0792 4.93823 1.7768 0. -1
</event>
<event>
 4 80 1 -1 -1 -1
 11 -1 0 0 0 0 0 0 5 5 0 0. 9.
 -11 -1 0 0 0 0 0 0 -4.9983 4.9983 0 0. 9.
 15 1 1 2 0 0 -3.30204 -3.27126 -0.477842 4.99907 1.7768 0. -1
 -15 1 1 2 0 0 3.30204 3.27126 0.479545 4.99923 1.7768 0. 1
</event>
<event>
 4 80 1 -1 -1 -1
 11 -1 0 0 0 0 0 0 4.69267 4.69267 0 0. 9.
 -11 -1 0 0 0 0 0 0 -5 5 0 0. 9.
 15 1 1 2 0 0 3.97311 -1.90411 -1.09986 4.87634 1.7768 0. -1
 -15 1 1 2 0 0 -3.97311 1.90411 0.792537 4.81634 1.7768 0. 1
</event>
<event>
 4 80 1 -1 -1 -1
 11 -1 0 0 0 0 0 0 5 5 0 0. 9.
 -11 -1 0 0 0 0 0 0 -5 5 0 0. 9.
 15 1 1 2 0 0 -1.37318 4.0051 -1.97883 5 1.7768 0. 1
 -15 1 1 2 0 0 1.37318 -4.0051 1.97884 5 1.7768 0. -1
</event>
<event>
 4 80 1 -1 -1 -1
 11 -1 0 0 0 0 0 0 4.36687 4.36687 0 0. 9.
 -11 -1 0 0 0 0 0 0 -5 5 0 0. 9.
 15 1 1 2 0 0 -2.52773 -1.80045 2.69792 4.47968 1.7768 0. -1
 -15 1 1 2 0 0 2.52773 1.80045 -3.33105 4.88719 1.7768 0. 1
</event>
<event>
 4 80 1 -1 -1 -1
 11 -1 0 0 0 0 0 0 5 5 0 0. 9.
 -11 -1 0 0 0 0 0 0 -5 5 0 0. 9.
 15 1 1 2 0 0 -0.817227 4.55625 0.644175 5 1.7768 0. -1
 -15 1 1 2 0 0 0.817227 -4.55625 -0.644175 5 1.7768 0. 1
</event>
<event>
 4 80 1 -1 -1 -1
 11 -1 0 0 0 0 0 0 5 5 0 0. 9.
 -11 -1 0 0 0 0 0 0 -5 5 0 0. 9.
 15 1 1 2 0 0 -0.642177 -3.77919 2.67349 5 1.7768 0. 1
 -15 1 1 2 0 0 0.642177 3.77919 -2.67349 5 1.7768 0. -1
</event>
<event>
 4 80 1 -1 -1 -1
 11 -1 0 0 0 0 0 0 4.95224 4.95224 0 0. 9.
 -11 -1 0 0 0 0 0 0 -5 5 0 0. 9.
 15 1 1 2 0 0 0.312532 -0.651884 4.56756 4.95408 1.7768 0. 1
 -15 1 1 2 0 0 -0.312532 0.651884 -4.61532 4.99815 1.7768 0. -1
</event>
<event>
 4 80 1 -1 -1 -1
 11 -1 0 0 0 0 0 0 5 5 0 0. 9.
 -11 -1 0 0 0 0 0 0 -5 5 0 0. 9.
 15 1 1 2 0 0 1.50038 1.42637 4.19006 5 1.7768 0. -1
 -15 1 1 2 0 0 -1.50038 -1.42637 -4.19006 5 1.7768 0. 1
</event>
<event>
 4 80 1 -1 -1 -1
 11 -1 0 0 0 0 0 0 3.3183 3.3183 0 0. 9.
 -11 -1 0 0 0 0 0 0 -4.99991 4.99991 0 0. 9.
 15 1 1 2 0 0 2.34752 0.544066 1.97905 3.58904 1.7768 0. -1
 -15 1 1 2 0 0 -2.34752 -0.544066 -3.66066 4.72917 1.7768 0. 1
</event>
<event>
 4 80 1 -1 -1 -1
 11 -1 0 0 0 0 0 0 5 5 0 0. 9.
 -11 -1 0 0 0 0 0 0 -4.99877 4.99877 0 0. 9.
 15 1 1 2 0 0 1.56808 4.14316 1.48772 4.99957 1.7768 0. -1
 -15 1 1 2 0 0 -1.56808 -4.14316 -1.48649 4.9992 1.7768 0. 1
</event>
<event>
 4 80 1 -1 -1 -1
 11 -1 0 0 0 0 0 0 5 5 0 0. 9.
 -11 -1 0 0 0 0 0 0 -5 5 0 0. 9.
 15 1 1 2 0 0 -3.68128 2.69531 -1.01278 5 1.7768 0. 1
 -15 1 1 2 0 0 3.68128 -2.69531 1.01278 5 1.7768 0. -1
</event>
<event>
 4 80 1 -1 -1 -1
 11 -1 0 0 0 0 0 0 5 5 0 0. 9.
 -11 -1 0 0 0 0 0 0 -0.797608 0.797608 0 0. 9.
 15 1 1 2 0 0 -0.416673 -0.74441 1.63635 2.56186 1.7768 0. -1
 -15 1 1 2 0 0 0.416673 0.74441 2.56604 3.23575 1.7768 0. 1
</event>
<event>
 4 80 1 -1 -1 -1
 11 -1 0 0 0 0 0 0 5 5 0 0. 9.
 -11 -1 0 0 0 0 0 0 -4.95794 4.95794 0 0. 9.
 15 1 1 2 0 0 -4.23553 -0.691423 -1.77181 4.9714 1.7768 0. -1
 -15 1 1 2 0 0 4.23553 0.691423 1.81387 4.98654 1.7768 0. 1
</event>
<event>
 4 80 1 -1 -1 -1
 11 -1 0 0 0 0 0 0 3.88605 3.88605 0 0. 9.
 -11 -1 0 0 0 0 0 0 -5 5 0 0. 9.
 15 1 1 2 0 0 -1.4964 -3.74496 -0.650482 4.45475 1.7768 0. -1
 -15 1 1 2 0 0 1.4964 3.74496 -0.463469 4.4313 1.7768 0. 1
</event>
<event>
 4 80 1 -1 -1 -1
 11 -1 0 0 0 0 0 0 4.96427 4.96427 0 0. 9.
 -11 -1 0 0 0 0 0 0 -5 5 0 0. 9.
 15 1 1 2 0 0 2.03384 -1.14604 -4.04451 4.99657 1.7768 0. -1
 -15 1 1 2 0 0 -2.03384 1.14604 4.00878 4.9677 1.7768 0. 1
</event>
<event>
 4 80 1 -1 -1 -1
 11 -1 0 0 0 0 0 0 4.99635 4.99635 0 0. 9.
 -11 -1 0 0 0 0 0 0 -5 5 0 0. 9.
 15 1 1 2 0 0 0.487963 -2.801 -3.70862 4.99953 1.7768 0. 1
 -15 1 1 2 0 0 -0.487963 2.801 3.70497 4.99682 1.7768 0. -1
</event>
<event>
 4 80 1 -1 -1 -1
 11 -1 0 0 0 0 0 0 5 5 0 0. 9.
 -11 -1 0 0 0 0 0 0 -5 5 0 0. 9.
 15 1 1 2 0 0 3.18908 0.557987 -3.37056 5 1.7768 0. 1
 -15 1 1 2 0 0 -3.18908 -0.557987 3.37056 5 1.7768 0. -1
</event>
<event>
 4 80 1 -1 -1 -1
 11 -1 0 0 0 0 0 0 4.99999 4.99999 0 0. 9.
 -11 -1 0 0 0 0 0 0 -4.9871 4.9871 0 0. 9.
 15 1 1 2 0 0 2.10436 1.8829 -3.70894 4.98875 1.7768 0. 1
 -15 1 1 2 0 0 -2.10436 -1.8829 3.72183 4.99834 1.7768 0. -1
</event>
<event>
 4 80 1 -1 -1 -1
 11 -1 0 0 0 0 0 0 4.94166 4.94166 0 0. 9.
 -11 -1 0 0 0 0 0 0 -4.96781 4.96781 0 0. 9.
 15 1 1 2 0 0 -0.361102 3.3364 -3.19578 4.96314 1.7768 0. 1
 -15 1 1 2 0 0 0.361102 -3.3364 3.16963 4.94633 1.7768 0. -1
</event>
</LesHouchesEvents>